  -24.000000000000000          0.0000000000000000     
  -23.940000000000001          0.0000000000000000     
  -23.879999999999999          0.0000000000000000     
  -23.820000000000000          0.0000000000000000     
  -23.760000000000002          0.0000000000000000     
  -23.699999999999999          0.0000000000000000     
  -23.640000000000001          0.0000000000000000     
  -23.579999999999998          0.0000000000000000     
  -23.520000000000000          0.0000000000000000     
  -23.460000000000001          0.0000000000000000     
  -23.399999999999999          0.0000000000000000     
  -23.340000000000000          0.0000000000000000     
  -23.280000000000001          0.0000000000000000     
  -23.219999999999999          0.0000000000000000     
  -23.160000000000000          0.0000000000000000     
  -23.100000000000001          0.0000000000000000     
  -23.039999999999999          0.0000000000000000     
  -22.980000000000000          0.0000000000000000     
  -22.920000000000002          0.0000000000000000     
  -22.859999999999999          0.0000000000000000     
  -22.800000000000001          0.0000000000000000     
  -22.739999999999998          0.0000000000000000     
  -22.680000000000000          0.0000000000000000     
  -22.620000000000001          0.0000000000000000     
  -22.559999999999999          0.0000000000000000     
  -22.500000000000000          0.0000000000000000     
  -22.440000000000001          0.0000000000000000     
  -22.379999999999999          0.0000000000000000     
  -22.320000000000000          0.0000000000000000     
  -22.260000000000002          0.0000000000000000     
  -22.199999999999999          0.0000000000000000     
  -22.140000000000001         -4.0062468761916691E-055
  -22.079999999999998         -1.1100767873158226E-054
  -22.020000000000000         -2.1262888466316025E-054
  -21.960000000000001         -4.4639254475204543E-054
  -21.899999999999999         -8.2265142637728483E-054
  -21.840000000000000         -1.2983381116657021E-053
  -21.780000000000001         -1.9484071333267557E-053
  -21.719999999999999         -2.8377871817587405E-053
  -21.660000000000000         -4.1824620607755450E-053
  -21.600000000000001         -6.2358106256694487E-053
  -21.539999999999999         -9.2434899574795944E-053
  -21.480000000000000         -1.4007588478042407E-052
  -21.420000000000002         -2.0893093463592862E-052
  -21.359999999999999          5.0593108001113875E-040
  -21.300000000000001          2.1720846117813407E-039
  -21.240000000000002          4.5886260421823399E-039
  -21.180000000000000          7.2654420614276715E-039
  -21.120000000000001          1.0963483140118974E-038
  -21.059999999999999          1.7079167106988127E-038
  -21.000000000000000          2.5383287337560522E-038
  -20.940000000000001          3.6727788889679666E-038
  -20.879999999999999          4.9143565022259522E-038
  -20.820000000000000          6.3028439511523105E-038
  -20.760000000000002          7.8901064192807452E-038
  -20.699999999999999          9.5605300127596579E-038
  -20.640000000000001          1.1439552663466762E-037
  -20.579999999999998          1.3625783283828560E-037
  -20.520000000000000          1.6220516522310590E-037
  -20.460000000000001          1.9243177986526870E-037
  -20.399999999999999          2.2659397325455443E-037
  -20.340000000000000          2.6347777926989517E-037
  -20.280000000000001          2.9364925041268301E-037
  -20.219999999999999          3.1121166495733544E-037
  -20.160000000000000          3.1083966038249063E-037
  -20.100000000000001          2.7643363671114949E-037
  -20.039999999999999          1.9808215151203023E-037
  -19.980000000000000          7.5360499723189155E-038
  -19.920000000000002         -1.2670569316042953E-037
  -19.859999999999999         -4.3730721378120760E-037
  -19.800000000000001         -8.8267085456412458E-037
  -19.740000000000002         -1.5063672340020164E-036
  -19.680000000000000         -2.3571866175439385E-036
  -19.620000000000001         -3.4522940301588056E-036
  -19.560000000000002         -4.8227312369219418E-036
  -19.500000000000000         -6.5976475424874481E-036
  -19.440000000000001         -8.7060153784305676E-036
  -19.379999999999999         -1.0999571490863290E-035
  -19.320000000000000         -1.3363848869840798E-035
  -19.259999999999998         -1.5603744582075852E-035
  -19.199999999999999         -1.7453567201488165E-035
  -19.140000000000001         -1.8535491852062777E-035
  -19.079999999999998         -1.8347776889928597E-035
  -19.020000000000000         -1.6246677962189382E-035
  -18.960000000000001         -1.1479302489342886E-035
  -18.899999999999999         -3.0901221161013561E-036
  -18.840000000000000          9.9783135715788441E-036
  -18.780000000000001          2.8827702157560521E-035
  -18.719999999999999          5.4562738101740555E-035
  -18.660000000000000          8.8206717244625413E-035
  -18.600000000000001          1.3053846289762812E-034
  -18.539999999999999          1.8190154019127604E-034
  -18.480000000000000          2.4196524752319269E-034
  -18.420000000000002          3.0944297821552045E-034
  -18.359999999999999          3.8177110612163461E-034
  -18.300000000000001          4.5463058102116407E-034
  -18.240000000000002          5.2175184484061070E-034
  -18.180000000000000          5.7446227072419369E-034
  -18.120000000000001          6.0130337532675662E-034
  -18.060000000000002          5.8795139855553505E-034
  -18.000000000000000          5.1714657828736968E-034
  -17.940000000000001          3.6885775406204443E-034
  -17.879999999999999          1.2080064357285058E-034
  -17.820000000000000         -2.5065579342775807E-034
  -17.759999999999998         -7.6907522879466762E-034
  -17.699999999999999         -1.4559557940364086E-033
  -17.640000000000001         -2.3281045535264819E-033
  -17.579999999999998         -3.3942570271346275E-033
  -17.520000000000000         -4.6510568778570288E-033
  -17.460000000000001         -6.0782591739460469E-033
  -17.399999999999999         -7.6336006595739552E-033
  -17.340000000000000         -9.2470671062247962E-033
  -17.280000000000001         -1.0815340797372038E-032
  -17.219999999999999         -1.2196545321711591E-032
  -17.160000000000000         -1.3205967705890321E-032
  -17.100000000000001         -1.3613416223548247E-032
  -17.039999999999999         -1.3143046549708780E-032
  -16.980000000000000         -1.1476590015005555E-032
  -16.920000000000002         -8.2609836261654974E-033
  -16.859999999999999         -3.1214947613203476E-033
  -16.800000000000001          4.3186581936712517E-033
  -16.740000000000002          1.4411257121577884E-032
  -16.680000000000000          2.7447884830042551E-032
  -16.620000000000001          4.3616232781028816E-032
  -16.560000000000002          6.2948011984993398E-032
  -16.500000000000000          8.5259249125449420E-032
  -16.440000000000001          1.1008450855072937E-031
  -16.379999999999999          1.3660758778981290E-031
  -16.320000000000000          1.6359224562496722E-031
  -16.260000000000002          1.8931806078121183E-031
  -16.199999999999999          2.1152718723367056E-031
  -16.140000000000001          2.2738992711617717E-031
  -16.079999999999998          2.3349742877397669E-031
  -16.020000000000000          2.2589140014580340E-031
  -15.960000000000001          2.0014116699651085E-031
  -15.900000000000000          1.5147876453835448E-031
  -15.840000000000000          7.5002100943376141E-032
  -15.780000000000001         -3.4044555247079249E-032
  -15.720000000000001         -1.7990620852943423E-031
  -15.660000000000000         -3.6586529870968923E-031
  -15.600000000000000         -5.9370356843525306E-031
  -15.540000000000001         -8.6308448141781667E-031
  -15.480000000000000         -1.1708711907275490E-030
  -15.420000000000000         -1.5104022899972459E-030
  -15.359999999999999         -1.8707587626085388E-030
  -15.300000000000001         -2.2360651950259329E-030
  -15.240000000000000         -2.5848821404559696E-030
  -15.180000000000000         -2.8897523544820900E-030
  -15.120000000000001         -3.1169793975948854E-030
  -15.060000000000000         -3.2267260918897095E-030
  -15.000000000000000         -3.1735198814014528E-030
  -14.940000000000000         -2.9072617821544761E-030
  -14.880000000000001         -2.3748324687688919E-030
  -14.820000000000000         -1.5223719371166384E-030
  -14.760000000000000         -2.9830621054446101E-031
  -14.700000000000001          1.3428435886817080E-030
  -14.640000000000001          3.4358600477409030E-030
  -14.580000000000000          5.9994764810971327E-030
  -14.520000000000000          9.0303674527163747E-030
  -14.460000000000001          1.2496639550339108E-029
  -14.400000000000000          1.6331062985974101E-029
  -14.340000000000000          2.0424357738088196E-029
  -14.280000000000001          2.4618939366069449E-029
  -14.220000000000001          2.8703622540473561E-029
  -14.160000000000000          3.2409850698757492E-029
  -14.100000000000000          3.5410115035870317E-029
  -14.040000000000001          3.7319263123866251E-029
  -13.980000000000000          3.7699443979082555E-029
  -13.920000000000000          3.6069430033686075E-029
  -13.860000000000001          3.1919032018500663E-029
  -13.800000000000001          2.4729218333923127E-029
  -13.740000000000000          1.3998381702414401E-029
  -13.680000000000000         -7.2494928842547036E-031
  -13.620000000000001         -1.9803041584101683E-029
  -13.560000000000000         -4.3463848023247146E-029
  -13.500000000000000         -7.1750752002606415E-029
  -13.440000000000001         -1.0446843030558548E-028
  -13.380000000000001         -1.4112674318012323E-028
  -13.320000000000000         -1.8088511790071228E-028
  -13.260000000000000         -2.2250047420084505E-028
  -13.200000000000001         -2.6428259140579346E-028
  -13.140000000000001         -3.0406097872163008E-028
  -13.080000000000000         -3.3916832516302263E-028
  -13.020000000000000         -3.6644554565265086E-028
  -12.960000000000001         -3.8227384603190768E-028
  -12.900000000000000         -3.8263944866927440E-028
  -12.840000000000000         -3.6323566240622843E-028
  -12.780000000000001         -3.1960717845180933E-028
  -12.720000000000001         -2.4733953992212332E-028
  -12.660000000000000         -1.4229625951165519E-028
  -12.600000000000000         -9.0318649394473049E-031
  -12.540000000000001          1.7952203204388888E-028
  -12.480000000000000          4.0040067919484711E-028
  -12.420000000000000          6.6149224759142719E-028
  -12.360000000000001          9.6047496844634518E-028
  -12.300000000000001          1.2925229312027192E-027
  -12.240000000000000          1.6499012910110411E-027
  -12.180000000000000          2.0216025434821807E-027
  -12.120000000000001          2.3930529843122767E-027
  -12.060000000000000          2.7459214415337623E-027
  -12.000000000000000          3.0580631542564749E-027
  -11.940000000000001          3.3036361612225248E-027
  -11.880000000000001          3.4534266758906185E-027
  -11.820000000000000          3.4754168355619905E-027
  -11.760000000000000          3.3356275302564270E-027
  -11.700000000000001          2.9992616649981446E-027
  -11.640000000000001          2.4321648846343538E-027
  -11.580000000000000          1.6026109756065376E-027
  -11.520000000000000          4.8340469608374422E-028
  -11.460000000000001         -9.4572283089568286E-028
  -11.400000000000000         -2.6954704712449522E-027
  -11.340000000000000         -4.7641391340520095E-027
  -11.280000000000001         -7.1347075295113588E-027
  -11.220000000000001         -9.7719288107062821E-027
  -11.160000000000000         -1.2619584904452837E-026
  -11.100000000000000         -1.5598059238439059E-026
  -11.040000000000001         -1.8602425734168013E-026
  -10.980000000000000         -2.1501235957136262E-026
  -10.920000000000000         -2.4136250961245235E-026
  -10.860000000000001         -2.6323325007343192E-026
  -10.800000000000001         -2.7854661253495726E-026
  -10.740000000000000         -2.8502667391704013E-026
  -10.680000000000000         -2.8025588079544333E-026
  -10.620000000000001         -2.6175059845389835E-026
  -10.560000000000000         -2.2705676018363245E-026
  -10.500000000000000         -1.7386612458585904E-026
  -10.440000000000001         -1.0015227546194225E-026
  -10.380000000000001         -4.3248653902758145E-028
  -10.320000000000000          1.1460058720588644E-026
  -10.260000000000000          2.5682165388401599E-026
  -10.200000000000001          4.2156177723916224E-026
  -10.140000000000001          6.0688388175334541E-026
  -10.080000000000000          8.0951313946810875E-026
  -10.020000000000001          1.0246789236451978E-025
  -9.9600000000000009          1.2459855621115587E-025
  -9.9000000000000004          1.4653258946627505E-025
  -9.8399999999999999          1.6728481291415792E-025
  -9.7800000000000011          1.8569912830766047E-025
  -9.7200000000000006          2.0045996337244527E-025
  -9.6600000000000001          2.1011311124264542E-025
  -9.6000000000000014          2.1309683390828443E-025
  -9.5400000000000009          2.0778427825512015E-025
  -9.4800000000000004          1.9253756828313552E-025
  -9.4199999999999999          1.6577414348777554E-025
  -9.3600000000000012          1.2604467838666679E-025
  -9.3000000000000007          7.2122116135317588E-026
  -9.2400000000000002          3.1002846710761798E-027
  -9.1799999999999997         -8.1499979800608740E-026
  -9.1200000000000010         -1.8161999827437595E-025
  -9.0600000000000005         -2.9655125558507057E-025
  -9.0000000000000000         -4.2482688407424856E-025
  -8.9400000000000013         -5.6412119250947196E-025
  -8.8800000000000008         -7.1116355574986740E-025
  -8.8200000000000003         -8.6167267403615066E-025
  -8.7599999999999998         -1.0103182857141124E-024
  -8.7000000000000011         -1.1507172461362855E-024
  -8.6400000000000006         -1.2754711982755000E-024
  -8.5800000000000001         -1.3762521846013407E-024
  -8.5200000000000014         -1.4439434096134932E-024
  -8.4600000000000009         -1.4688393121204123E-024
  -8.4000000000000004         -1.4409095269695225E-024
  -8.3399999999999999         -1.3501295433295555E-024
  -8.2800000000000011         -1.1868765184454941E-024
  -8.2200000000000006         -9.4238843018290249E-025
  -8.1600000000000001         -6.0928223448230204E-025
  -8.1000000000000014         -1.8211977394364593E-025
  -8.0400000000000009          3.4198903285524009E-025
  -7.9800000000000004          9.6276280882787340E-025
  -7.9200000000000017          1.6761264559730945E-024
  -7.8599999999999994          2.4736115386045537E-024
  -7.8000000000000007          3.3418101895817104E-024
  -7.7400000000000020          4.2619100791644764E-024
  -7.6799999999999997          5.2093471781029782E-024
  -7.6200000000000010          6.1536097300376068E-024
  -7.5600000000000023          7.0582307634276670E-024
  -7.5000000000000000          7.8810047638144598E-024
  -7.4400000000000013          8.5744618588277324E-024
  -7.3799999999999990          9.0866332808739534E-024
  -7.3200000000000003          9.3621302778071025E-024
  -7.2600000000000016          9.3435543274676873E-024
  -7.1999999999999993          8.9732558118469341E-024
  -7.1400000000000006          8.1954265941292736E-024
  -7.0800000000000018          6.9585257945820147E-024
  -7.0199999999999996          5.2179961846687990E-024
  -6.9600000000000009          2.9392367839506960E-024
  -6.9000000000000021          1.0076400295686722E-025
  -6.8399999999999999         -3.3025237384914331E-024
  -6.7800000000000011         -7.2560727465600392E-024
  -6.7199999999999989         -1.1722514678398201E-023
  -6.6600000000000001         -1.6638749669872736E-023
  -6.6000000000000014         -2.1913430812825087E-023
  -6.5399999999999991         -2.7425010503267516E-023
  -6.4800000000000004         -3.3020511015590826E-023
  -6.4200000000000017         -3.8515212266926472E-023
  -6.3599999999999994         -4.3693412560109259E-023
  -6.3000000000000007         -4.8310444077584261E-023
  -6.2400000000000020         -5.2096066717249064E-023
  -6.1799999999999997         -5.4759400238638972E-023
  -6.1200000000000010         -5.5995481920455387E-023
  -6.0600000000000023         -5.5493438053712940E-023
  -6.0000000000000000         -5.2946417502227781E-023
  -5.9400000000000013         -4.8063049313552537E-023
  -5.8799999999999990         -4.0580463349879795E-023
  -5.8200000000000003         -3.0278565465334300E-023
  -5.7600000000000016         -1.6995368205761202E-023
  -5.6999999999999993         -6.4297979983232949E-025
  -5.6400000000000006          1.8776165247053050E-023
  -5.5800000000000018          4.1153396753297713E-023
  -5.5199999999999996          6.6258742701579156E-023
  -5.4600000000000009          9.3727457193334337E-023
  -5.4000000000000021          1.2304881495328191E-022
  -5.3399999999999999          1.5355801335269063E-022
  -5.2800000000000011          1.8443183825609465E-022
  -5.2200000000000024          2.1468910201756170E-022
  -5.1600000000000001          2.4319638827655704E-022
  -5.1000000000000014          2.6868002389393973E-022
  -5.0399999999999991          2.8974477538066102E-022
  -4.9800000000000004          3.0489973853273097E-022
  -4.9200000000000017          3.1259199224908216E-022
  -4.8599999999999994          3.1124774377381438E-022
  -4.8000000000000007          2.9932135712653079E-022
  -4.7400000000000020          2.7535137161962442E-022
  -4.6799999999999997          2.3802332311093490E-022
  -4.6200000000000010          1.8623802431387919E-022
  -4.5600000000000023          1.1918400677584215E-022
  -4.5000000000000000          3.6412704790150970E-023
  -4.4400000000000013         -6.2086133900539493E-023
  -4.3799999999999990         -1.7581078301911106E-022
  -4.3200000000000003         -3.0367862867150700E-022
  -4.2600000000000016         -4.4396492497065515E-022
  -4.1999999999999993         -5.9425235482849390E-022
  -4.1400000000000006         -7.5139472770795877E-022
  -4.0800000000000018         -9.1149878354906894E-022
  -4.0199999999999996         -1.0699264587340351E-021
  -3.9600000000000009         -1.2213220430005183E-021
  -3.9000000000000021         -1.3596666006602517E-021
  -3.8399999999999999         -1.4783617584304374E-021
  -3.7800000000000011         -1.5703461705557370E-021
  -3.7200000000000024         -1.6282446724665496E-021
  -3.6600000000000001         -1.6445512321733779E-021
  -3.6000000000000014         -1.6118450390223627E-021
  -3.5399999999999991         -1.5230377859706910E-021
  -3.4800000000000004         -1.3716497076432150E-021
  -3.4200000000000017         -1.1521096676922125E-021
  -3.3599999999999994         -8.6007330624674197E-022
  -3.3000000000000007         -4.9275368444106484E-022
  -3.2400000000000020         -4.9252875364640355E-023
  -3.1799999999999997          4.6911145910766711E-022
  -3.1200000000000010          1.0584999268607573E-021
  -3.0600000000000023          1.7122737997430336E-021
  -3.0000000000000000          2.4207628031774288E-021
  -2.9400000000000013          3.1710897594663960E-021
  -2.8800000000000026          3.9470666775735149E-021
  -2.8200000000000003          4.7291763375429085E-021
  -2.7600000000000016          5.4946530971303652E-021
  -2.6999999999999993          6.2176739462680516E-021
  -2.6400000000000006          6.8696709031421252E-021
  -2.5800000000000018          7.4197758615734136E-021
  -2.5199999999999996          7.8353976700717893E-021
  -2.4600000000000009          8.0829409190261023E-021
  -2.4000000000000021          8.1286591609986204E-021
  -2.3399999999999999          7.9396409790424116E-021
  -2.2800000000000011          7.4849192866744505E-021
  -2.2200000000000024          6.7366809106781867E-021
  -2.1600000000000001          5.6715673790738260E-021
  -2.1000000000000014          4.2720259968370437E-021
  -2.0399999999999991          2.5276984231709082E-021
  -1.9800000000000004          4.3679120871241235E-022
  -1.9200000000000017         -1.9926044439591852E-021
  -1.8599999999999994         -4.7412904180262257E-021
  -1.8000000000000007         -7.7778863478601318E-021
  -1.7400000000000020         -1.1057955876752586E-020
  -1.6799999999999997         -1.4523388523349445E-020
  -1.6200000000000010         -1.8102089321622913E-020
  -1.5600000000000023         -2.1708026473515422E-020
  -1.5000000000000000         -2.5241692299347859E-020
  -1.4400000000000013         -2.8591011058175047E-020
  -1.3800000000000026         -3.1632747572870132E-020
  -1.3200000000000003         -3.4234423600579030E-020
  -1.2600000000000016         -3.6256768850962763E-020
  -1.1999999999999993         -3.7556723618409890E-020
  -1.1400000000000006         -3.7990948732979086E-020
  -1.0800000000000018         -3.7419841732312576E-020
  -1.0199999999999996         -3.5712008612348907E-020
 -0.96000000000000085         -3.2749126046665873E-020
 -0.90000000000000213         -2.8431094627840322E-020
 -0.83999999999999986         -2.2681400960639464E-020
 -0.78000000000000114         -1.5452550076195694E-020
 -0.72000000000000242         -6.7314411727337438E-021
 -0.66000000000000014          3.4554933584610159E-021
 -0.60000000000000142          1.5037547595503405E-020
 -0.53999999999999915          2.7895571819289017E-020
 -0.48000000000000043          4.1858588110452604E-020
 -0.42000000000000171          5.6701383974749048E-020
 -0.35999999999999943          7.2143243875823021E-020
 -0.30000000000000071          8.7848085820001745E-020
 -0.24000000000000199          1.0342607843816843E-019
 -0.17999999999999972          1.1843695322405842E-019
 -0.12000000000000099          1.3239514855302783E-019
  -6.0000000000002274E-002     1.4477683820188907E-019
   0.0000000000000000          1.5502892935649775E-019
   5.9999999999998721E-002     1.6258002779541582E-019
  0.11999999999999744          1.6685337813613342E-019
  0.17999999999999972          1.6728152210618968E-019
  0.23999999999999844          1.6332275296538098E-019
  0.30000000000000071          1.5447893112918485E-019
  0.35999999999999943          1.4031444498855136E-019
  0.41999999999999815          1.2047602017562239E-019
  0.48000000000000043          9.4712780218052295E-020
  0.53999999999999915          6.2896313408927519E-020
  0.59999999999999787          2.5039930745029965E-020
  0.66000000000000014         -1.8683253845468358E-020
  0.71999999999999886         -6.7924169408458871E-020
  0.77999999999999758         -1.2214421284679981E-019
  0.83999999999999986         -1.8060485432036789E-019
  0.89999999999999858         -2.4236120151418956E-019
  0.96000000000000085         -3.0626002040482128E-019
   1.0199999999999996         -3.7094302119209666E-019
   1.0799999999999983         -4.3485569671398402E-019
   1.1400000000000006         -4.9626247178033905E-019
   1.1999999999999993         -5.5326812314258919E-019
   1.2599999999999980         -6.0384627923591312E-019
   1.3200000000000003         -6.4587433007764732E-019
   1.3799999999999990         -6.7717541183547789E-019
   1.4399999999999977         -6.9556676813292080E-019
   1.5000000000000000         -6.9891399885495000E-019
   1.5599999999999987         -6.8519081165103273E-019
   1.6199999999999974         -6.5254322840819647E-019
   1.6799999999999997         -5.9935725925788394E-019
   1.7399999999999984         -5.2432851619198486E-019
   1.8000000000000007         -4.2653237357692212E-019
   1.8599999999999994         -3.0549339083052110E-019
   1.9199999999999982         -1.6125133005371379E-019
   1.9800000000000004          5.5773600403269701E-021
   2.0399999999999991          1.9374540724144424E-019
   2.0999999999999979          4.0132938626436928E-019
   2.1600000000000001          6.2569596131658754E-019
   2.2199999999999989          8.6348169841559214E-019
   2.2799999999999976          1.1105876263970695E-018
   2.3399999999999999          1.3621920563658810E-018
   2.3999999999999986          1.6127816851337530E-018
   2.4599999999999973          1.8562032923338374E-018
   2.5199999999999996          2.0857368598445059E-018
   2.5799999999999983          2.2941904276769731E-018
   2.6400000000000006          2.4740172316789891E-018
   2.6999999999999993          2.6174547430026704E-018
   2.7599999999999980          2.7166840983027666E-018
   2.8200000000000003          2.7640093832094497E-018
   2.8799999999999990          2.7520533622579377E-018
   2.9399999999999977          2.6739682507127781E-018
   3.0000000000000000          2.5236573003821501E-018
   3.0599999999999987          2.2960026446789400E-018
   3.1199999999999974          1.9870963898852480E-018
   3.1799999999999997          1.5944677151487304E-018
   3.2399999999999984          1.1173028723439486E-018
   3.3000000000000007          5.5664952613529853E-019
   3.3599999999999994         -8.4399771238324784E-020
   3.4199999999999982         -8.0055034349850757E-019
   3.4800000000000004         -1.5841835095941469E-018
   3.5399999999999991         -2.4252727868295363E-018
   3.5999999999999979         -3.3113476676867773E-018
   3.6600000000000001         -4.2275096761002957E-018
   3.7199999999999989         -5.1565031209499693E-018
   3.7799999999999976         -6.0788493450354636E-018
   3.8399999999999999         -6.9730443081784041E-018
   3.8999999999999986         -7.8158217160016151E-018
   3.9599999999999973         -8.5824840056847016E-018
   4.0199999999999996         -9.2473008984140344E-018
   4.0799999999999983         -9.7839695739870794E-018
   4.1400000000000006         -1.0166139012395214E-017
   4.1999999999999993         -1.0367987805132982E-017
   4.2599999999999980         -1.0364847790306370E-017
   4.3200000000000003         -1.0133867613709467E-017
   4.3799999999999990         -9.6547075652327665E-018
   4.4399999999999977         -8.9102431767075525E-018
   4.5000000000000000         -7.8872747220421324E-018
   4.5599999999999987         -6.5772239803580435E-018
   4.6199999999999974         -4.9767948416439006E-018
   4.6799999999999997         -3.0885919086146460E-018
   4.7399999999999984         -9.2167347376697536E-019
   4.7999999999999972          1.5079832739879517E-018
   4.8599999999999994          4.1771158254567584E-018
   4.9199999999999982          7.0549284736011705E-018
   4.9800000000000004          1.0102982537033793E-017
   5.0399999999999991          1.3275232418746816E-017
   5.0999999999999979          1.6518233596829610E-017
   5.1600000000000001          1.9771516709532524E-017
   5.2199999999999989          2.2968153658605432E-017
   5.2799999999999976          2.6035502816726186E-017
   5.3399999999999999          2.8896155555102370E-017
   5.3999999999999986          3.1469058869401536E-017
   5.4599999999999973          3.3670834134287129E-017
   5.5199999999999996          3.5417255867781095E-017
   5.5799999999999983          3.6624890681187399E-017
   5.6400000000000006          3.7212878241020508E-017
   5.6999999999999993          3.7104823371471155E-017
   5.7599999999999980          3.6230771195524041E-017
   5.8200000000000003          3.4529235206490689E-017
   5.8799999999999990          3.1949253817500947E-017
   5.9399999999999977          2.8452404065645691E-017
   6.0000000000000000          2.4014770613055264E-017
   6.0599999999999987          1.8628797471525133E-017
   6.1199999999999974          1.2304979999324560E-017
   6.1799999999999997          5.0733641592760967E-018
   6.2399999999999984         -3.0152104003510510E-018
   6.2999999999999972         -1.1888158375729648E-017
   6.3599999999999994         -2.1450534209884592E-017
   6.4199999999999982         -3.1584801200984323E-017
   6.4800000000000004         -4.2151007011794738E-017
   6.5399999999999991         -5.2987418871185671E-017
   6.5999999999999979         -6.3911605708570772E-017
   6.6600000000000001         -7.4722046136827658E-017
   6.7199999999999989         -8.5200212394600783E-017
   6.7799999999999976         -9.5113159221215528E-017
   6.8399999999999999         -1.0421661580893409E-016
   6.8999999999999986         -1.1225856429043977E-016
   6.9599999999999973         -1.1898324240167807E-016
   7.0199999999999996         -1.2413558961133697E-016
   7.0799999999999983         -1.2746603700739270E-016
   7.1400000000000006         -1.2873560997994955E-016
   7.1999999999999993         -1.2772129273633659E-016
   7.2599999999999980         -1.2422148553750586E-016
   7.3200000000000003         -1.1806164763652275E-016
   7.3799999999999990         -1.0909979066783838E-016
   7.4399999999999977         -9.7231975391737361E-017
   7.5000000000000000         -8.2397441775226596E-017
   7.5599999999999987         -6.4583536770223751E-017
   7.6199999999999974         -4.3830135682487729E-017
   7.6799999999999997         -2.0233422102471587E-017
   7.7399999999999984          6.0508526839306715E-018
   7.7999999999999972          3.4804985523329162E-017
   7.8599999999999994          6.5747854804780764E-017
   7.9199999999999982          9.8534343096271648E-017
   7.9800000000000004          1.3275585443872314E-016
   8.0399999999999991          1.6794196433729204E-016
   8.1000000000000014          2.0356330100607713E-016
   8.1599999999999966          2.3903561012626181E-016
   8.2199999999999989          2.7372504211957263E-016
   8.2800000000000011          3.0695482579597910E-016
   8.3399999999999963          3.3801304640600655E-016
   8.3999999999999986          3.6616172980940342E-016
   8.4600000000000009          3.9064713122066327E-016
   8.5199999999999960          4.1071092711075562E-016
   8.5799999999999983          4.2560252586576922E-016
   8.6400000000000006          4.3459222509318057E-016