  -24.000000000000000          0.0000000000000000     
  -23.940000000000001          0.0000000000000000     
  -23.879999999999999          0.0000000000000000     
  -23.820000000000000          0.0000000000000000     
  -23.760000000000002          0.0000000000000000     
  -23.699999999999999          0.0000000000000000     
  -23.640000000000001          0.0000000000000000     
  -23.579999999999998          0.0000000000000000     
  -23.520000000000000          0.0000000000000000     
  -23.460000000000001          0.0000000000000000     
  -23.399999999999999          0.0000000000000000     
  -23.340000000000000          0.0000000000000000     
  -23.280000000000001          0.0000000000000000     
  -23.219999999999999          0.0000000000000000     
  -23.160000000000000          0.0000000000000000     
  -23.100000000000001          0.0000000000000000     
  -23.039999999999999          0.0000000000000000     
  -22.980000000000000          0.0000000000000000     
  -22.920000000000002          0.0000000000000000     
  -22.859999999999999          0.0000000000000000     
  -22.800000000000001          0.0000000000000000     
  -22.739999999999998          0.0000000000000000     
  -22.680000000000000          2.1513804042272632E-053
  -22.620000000000001          1.2267215334995086E-052
  -22.559999999999999          2.5972371512798866E-052
  -22.500000000000000          4.7999920341200329E-052
  -22.440000000000001          8.8606829301256655E-052
  -22.379999999999999          1.6898515180819457E-051
  -22.320000000000000          3.2715435867613831E-051
  -22.260000000000002          6.4885264948846911E-051
  -22.199999999999999          1.2678127817758846E-050
  -22.140000000000001          2.4771207598848031E-050
  -22.079999999999998         -4.0790209382707373E-039
  -22.020000000000000         -1.2516214777857899E-038
  -21.960000000000001         -2.5370669587738251E-038
  -21.899999999999999         -6.6280736752557586E-038
  -21.840000000000000         -1.1460699153069950E-037
  -21.780000000000001         -1.7589007925435370E-037
  -21.719999999999999         -2.5959613277881166E-037
  -21.660000000000000         -3.8130199555728809E-037
  -21.600000000000001         -5.6590229086678707E-037
  -21.539999999999999         -8.6934525460673575E-037
  -21.480000000000000         -1.3427529623089163E-036
  -21.420000000000002         -2.0734198730954961E-036
  -21.359999999999999         -3.2342788378422049E-036
  -21.300000000000001         -4.9875790126710985E-036
  -21.240000000000002         -7.5986159678788278E-036
  -21.180000000000000         -1.1443010781393699E-035
  -21.120000000000001         -1.7040137978757894E-035
  -21.059999999999999         -2.5042947473581363E-035
  -21.000000000000000         -3.6334312324067408E-035
  -20.940000000000001         -5.2035071759780974E-035
  -20.879999999999999         -7.3590341728905856E-035
  -20.820000000000000         -1.0273544003125222E-034
  -20.760000000000002         -1.4152253843808212E-034
  -20.699999999999999         -1.9229870994498379E-034
  -20.640000000000001         -2.5757776217127418E-034
  -20.579999999999998         -3.3997742263492063E-034
  -20.520000000000000         -4.4193983720437680E-034
  -20.460000000000001         -5.6536185956980448E-034
  -20.399999999999999         -7.1099903371834991E-034
  -20.340000000000000         -8.7785688701991228E-034
  -20.280000000000001         -1.0621979281462612E-033
  -20.219999999999999         -1.2563397956841974E-033
  -20.160000000000000         -1.4472084695399845E-033
  -20.100000000000001         -1.6146761282705255E-033
  -20.039999999999999         -1.7296351303415945E-033
  -19.980000000000000         -1.7520010114306466E-033
  -19.920000000000002         -1.6287091971391438E-033
  -19.859999999999999         -1.2919293067379943E-033
  -19.800000000000001         -6.5780216222118973E-034
  -19.740000000000002          3.7390587446771618E-034
  -19.680000000000000          1.9188539820817817E-033
  -19.620000000000001          4.1051801059272771E-033
  -19.560000000000002          7.0679552449047219E-033
  -19.500000000000000          1.0940252190850424E-032
  -19.440000000000001          1.5840093735825952E-032
  -19.379999999999999          2.1852351992803600E-032
  -19.320000000000000          2.9005045725639223E-032
  -19.259999999999998          3.7239414579143942E-032
  -19.199999999999999          4.6373528898227679E-032
  -19.140000000000001          5.6059608746849939E-032
  -19.079999999999998          6.5735876762431131E-032
  -19.020000000000000          7.4574508429329545E-032
  -18.960000000000001          8.1428325970057620E-032
  -18.899999999999999          8.4779924694444879E-032
  -18.840000000000000          8.2698488933391314E-032
  -18.780000000000001          7.2810879588349393E-032
  -18.719999999999999          5.2295326704999480E-032
  -18.660000000000000          1.7907585510217765E-032
  -18.600000000000001         -3.3949183896987334E-032
  -18.539999999999999         -1.0709830737114100E-031
  -18.480000000000000         -2.0539419326437419E-031
  -18.420000000000002         -3.3244459547070099E-031
  -18.359999999999999         -4.9123857492603088E-031
  -18.300000000000001         -6.8367068341343755E-031
  -18.240000000000002         -9.0995589556384225E-031
  -18.180000000000000         -1.1679346994096411E-030
  -18.120000000000001         -1.4522775336411893E-030
  -18.060000000000002         -1.7536062600319541E-030
  -18.000000000000000         -2.0575628906111765E-030
  -17.940000000000001         -2.3438721129549662E-030
  -17.879999999999999         -2.5854603891353444E-030
  -17.820000000000000         -2.7477119807592704E-030
  -17.759999999999998         -2.7879634347473008E-030
  -17.699999999999999         -2.6553571549192306E-030
  -17.640000000000001         -2.2911933951819446E-030
  -17.579999999999998         -1.6299316171502407E-030
  -17.520000000000000         -6.0101049122537359E-031
  -17.460000000000001          8.6835058562044907E-031
  -17.399999999999999          2.8492061843368286E-030
  -17.340000000000000          5.4056556648000100E-030
  -17.280000000000001          8.5882208281288730E-030
  -17.219999999999999          1.2425785126032191E-029
  -17.160000000000000          1.6916107820783690E-029
  -17.100000000000001          2.2015028892322618E-029
  -17.039999999999999          2.7624600469494017E-029
  -16.980000000000000          3.3580538756257519E-029
  -16.920000000000002          3.9639497511521274E-029
  -16.859999999999999          4.5466942265271580E-029
  -16.800000000000001          5.0626504521067469E-029
  -16.740000000000002          5.4571946080344179E-029
  -16.680000000000000          5.6643075095072205E-029
  -16.620000000000001          5.6067079690821976E-029
  -16.560000000000002          5.1966954733207000E-029
  -16.500000000000000          4.3378715013965578E-029
  -16.440000000000001          2.9279219795947249E-029
  -16.379999999999999          8.6261986194682022E-030
  -16.320000000000000         -1.9587945352669020E-029
  -16.260000000000002         -5.6267445682381999E-029
  -16.199999999999999         -1.0212892967770159E-028
  -16.140000000000001         -1.5760163623696587E-028
  -16.079999999999998         -2.2271298140491499E-028
  -16.020000000000000         -2.9696149842102175E-028
  -15.960000000000001         -3.7918032790159836E-028
  -15.900000000000000         -4.6739583157255268E-028
  -15.840000000000000         -5.5868810224671207E-028
  -15.780000000000001         -6.4906089145123182E-028
  -15.720000000000001         -7.3333094348622151E-028
  -15.660000000000000         -8.0504854303308706E-028
  -15.600000000000000         -8.5646215584993033E-028
  -15.540000000000001         -8.7854201423967722E-028
  -15.480000000000000         -8.6107745512265856E-028
  -15.420000000000000         -7.9286519145004947E-028
  -15.359999999999999         -6.6200305991879222E-028
  -15.300000000000001         -4.5630385635153270E-028
  -15.240000000000000         -1.6384217487756149E-028
  -15.180000000000000          2.2635768826681813E-028
  -15.120000000000001          7.2348824788057669E-028
  -15.060000000000000          1.3339828453660698E-027
  -15.000000000000000          2.0604064709934386E-027
  -14.940000000000000          2.9002342629000047E-027
  -14.880000000000001          3.8445461148648238E-027
  -14.820000000000000          4.8766813706438683E-027
  -14.760000000000000          5.9709083079296487E-027
  -14.700000000000001          7.0911797821540220E-027
  -14.640000000000001          8.1900546444829901E-027
  -14.580000000000000          9.2078851712695505E-027
  -14.520000000000000          1.0072377878745568E-026
  -14.460000000000001          1.0698645689919487E-026
  -14.400000000000000          1.0989878442459379E-026
  -14.340000000000000          1.0838758221139271E-026
  -14.280000000000001          1.0129743587428155E-026
  -14.220000000000001          8.7423417968783315E-027
  -14.160000000000000          6.5554592487852336E-027
  -14.100000000000000          3.4529124409646536E-027
  -14.040000000000001         -6.6987802398266114E-028
  -13.980000000000000         -5.8980091842370339E-027
  -13.920000000000000         -1.2288110844832137E-026
  -13.860000000000001         -1.9858375309424426E-026
  -13.800000000000001         -2.8577840988747653E-026
  -13.740000000000000         -3.8355192399830270E-026
  -13.680000000000000         -4.9027487629527443E-026
  -13.620000000000001         -6.0349320778285221E-026
  -13.560000000000000         -7.1982959625855203E-026
  -13.500000000000000         -8.3490200718283684E-026
  -13.440000000000001         -9.4326635618373399E-026
  -13.380000000000001         -1.0383926753898875E-025
  -13.320000000000000         -1.1126825876284021E-025
  -13.260000000000000         -1.1575384395146758E-025
  -13.200000000000001         -1.1634923563286252E-025
  -13.140000000000001         -1.1204044285676462E-025
  -13.080000000000000         -1.0177372690567352E-025
  -13.020000000000000         -8.4491331023935643E-026
  -12.960000000000001         -5.9175850954483360E-026
  -12.900000000000000         -2.4903404332179575E-026
  -12.840000000000000          1.9094598665634773E-026
  -12.780000000000001          7.3361905355548657E-026
  -12.720000000000001          1.3814090989061368E-025
  -12.660000000000000          2.1329114830046158E-025
  -12.600000000000000          2.9820475180509145E-025
  -12.540000000000001          3.9172213063355001E-025
  -12.480000000000000          4.9205055562272096E-025
  -12.420000000000000          5.9669095984743759E-025
  -12.360000000000001          7.0237658386159726E-025
  -12.300000000000001          8.0502938317599176E-025
  -12.240000000000000          8.9973939121025250E-025
  -12.180000000000000          9.8077362788185656E-025
  -12.120000000000001          1.0416197482405257E-024
  -12.060000000000000          1.0750713091149421E-024
  -12.000000000000000          1.0733597598165545E-024
  -11.940000000000001          1.0283380869629165E-024
  -11.880000000000001          9.3171985325831937E-025
  -11.820000000000000          7.7537699643632292E-025
  -11.760000000000000          5.5169610759617781E-025
  -11.700000000000001          2.5399239944406917E-025
  -11.640000000000001         -1.2302284286266147E-025
  -11.580000000000000         -5.8272783258713926E-025
  -11.520000000000000         -1.1260393668384947E-024
  -11.460000000000001         -1.7508385817682693E-024
  -11.400000000000000         -2.4513911814574306E-024
  -11.340000000000000         -3.2177829432351813E-024
  -11.280000000000001         -4.0353948993341213E-024
  -11.220000000000001         -4.8844486528912627E-024
  -11.160000000000000         -5.7396484405416500E-024
  -11.100000000000000         -6.5699627075956006E-024
  -11.040000000000001         -7.3385706511389897E-024
  -10.980000000000000         -8.0030178455204730E-024
  -10.920000000000000         -8.5156170298210244E-024
  -10.860000000000001         -8.8241240356368533E-024
  -10.800000000000001         -8.8727245513117279E-024
  -10.740000000000000         -8.6033570696828368E-024
  -10.680000000000000         -7.9573882795524543E-024
  -10.620000000000001         -6.8776510113147463E-024
  -10.560000000000000         -5.3108456368139452E-024
  -10.500000000000000         -3.2102838483227606E-024
  -10.440000000000001         -5.3894655752843768E-025
  -10.380000000000001          2.7271897975212386E-024
  -10.320000000000000          6.5956365199674441E-024
  -10.260000000000000          1.1053765646845726E-023
  -10.200000000000001          1.6065178438527688E-023
  -10.140000000000001          2.1566223188008325E-023
  -10.080000000000000          2.7462759104050784E-023
  -10.020000000000001          3.3627410881075124E-023
  -9.9600000000000009          3.9897428304501026E-023
  -9.9000000000000004          4.6073396492547830E-023
  -9.8399999999999999          5.1918980267773465E-023
  -9.7800000000000011          5.7161881090719538E-023
  -9.7200000000000006          6.1496295186573354E-023
  -9.6600000000000001          6.4586972846627711E-023
  -9.6000000000000014          6.6075090832477953E-023
  -9.5400000000000009          6.5586058609880443E-023
  -9.4800000000000004          6.2739375005647329E-023
  -9.4199999999999999          5.7160547788601720E-023
  -9.3600000000000012          4.8495073792640284E-023
  -9.3000000000000007          3.6424398359591207E-023
  -9.2400000000000002          2.0683618812787707E-023
  -9.1799999999999997          1.0807317883435209E-024
  -9.1200000000000010         -2.2482993512969469E-023
  -9.0600000000000005         -4.9992024820295394E-023
  -9.0000000000000000         -8.1295403219220899E-023
  -8.9400000000000013         -1.1608636389697232E-022
  -8.8800000000000008         -1.5388316312902076E-022
  -8.8200000000000003         -1.9401249821874050E-022
  -8.7599999999999998         -2.3559594062130290E-022
  -8.7000000000000011         -2.7754086857079155E-022
  -8.6400000000000006         -3.1853666576530388E-022
  -8.5800000000000001         -3.5705755591464276E-022
  -8.5200000000000014         -3.9137285989889923E-022
  -8.4600000000000009         -4.1956581345538196E-022
  -8.4000000000000004         -4.3956191419244437E-022
  -8.3399999999999999         -4.4916733357541058E-022
  -8.2800000000000011         -4.4611819502389091E-022
  -8.2200000000000006         -4.2814080749307673E-022
  -8.1600000000000001         -3.9302284425567094E-022
  -8.1000000000000014         -3.3869534706366313E-022
  -8.0400000000000009         -2.6332449097232755E-022
  -7.9800000000000004         -1.6541193572324686E-022
  -7.9200000000000017         -4.3902228747197217E-023
  -7.8599999999999994          1.0170506866966440E-022
  -7.8000000000000007          2.7124130843344412E-022
  -7.7400000000000020          4.6375561343225903E-022
  -7.6799999999999997          6.7740753721858327E-022
  -7.6200000000000010          9.0936786953205720E-022
  -7.5600000000000023          1.1557339423683644E-021
  -7.5000000000000000          1.4114638082401435E-021
  -7.4400000000000013          1.6703341440430627E-021
  -7.3799999999999990          1.9249277759526161E-021
  -7.3200000000000003          2.1666555785273467E-021
  -7.2600000000000016          2.3858187316998022E-021
  -7.1999999999999993          2.5717143896249500E-021
  -7.1400000000000006          2.7127909868421014E-021
  -7.0800000000000018          2.7968543997392179E-021
  -7.0199999999999996          2.8113286981446351E-021
  -6.9600000000000009          2.7435714969696280E-021
  -6.9000000000000021          2.5812444792097384E-021
  -6.8399999999999999          2.3127356145111833E-021
  -6.7800000000000011          1.9276281228977965E-021
  -6.7199999999999989          1.4172132920714187E-021
  -6.6600000000000001          7.7503444685138960E-022
  -6.6000000000000014         -2.5458044048916211E-024
  -6.5399999999999991         -9.1577152223745927E-022
  -6.4800000000000004         -1.9609225385072245E-021
  -6.4200000000000017         -3.1297739032875954E-021
  -6.3599999999999994         -4.4090927881446080E-021
  -6.3000000000000007         -5.7802091253441853E-021
  -6.2400000000000020         -7.2186713598999111E-021
  -6.1799999999999997         -8.6940182390528911E-021
  -6.1200000000000010         -1.0169684483814169E-020
  -6.0600000000000023         -1.1603073976017245E-020
  -6.0000000000000000         -1.2945818881304410E-020
  -5.9400000000000013         -1.4144238899609458E-020
  -5.8799999999999990         -1.5140036165331198E-020
  -5.8200000000000003         -1.5871221662035087E-020
  -5.7600000000000016         -1.6273297014337050E-020
  -5.6999999999999993         -1.6280695320207354E-020
  -5.6400000000000006         -1.5828474033062377E-020
  -5.5800000000000018         -1.4854246819163752E-020
  -5.5199999999999996         -1.3300350961874058E-020
  -5.4600000000000009         -1.1116214840126287E-020
  -5.4000000000000021         -8.2608857481125288E-021
  -5.3399999999999999         -4.7056754730210302E-021
  -5.2800000000000011         -4.3687261976017571E-022
  -5.2200000000000024          4.5415557185254444E-021
  -5.1600000000000001          1.0205336996342904E-020
  -5.1000000000000014          1.6507433788732692E-020
  -5.0399999999999991          2.3375843795058705E-020
  -4.9800000000000004          3.0711763852702191E-020
  -4.9200000000000017          3.8388206665086532E-020
  -4.8599999999999994          4.6249166434803744E-020
  -4.8000000000000007          5.4109504126760110E-020
  -4.7400000000000020          6.1755559221037328E-020
  -4.6799999999999997          6.8946650036332399E-020
  -4.6200000000000010          7.5417516150921966E-020
  -4.5600000000000023          8.0881822253256216E-020
  -4.5000000000000000          8.5036707674474372E-020
  -4.4400000000000013          8.7568452132377453E-020
  -4.3799999999999990          8.8159262606772741E-020
  -4.3200000000000003          8.6495185459511996E-020
  -4.2600000000000016          8.2275028071798070E-020
  -4.1999999999999993          7.5220226632273000E-020
  -4.1400000000000006          6.5085581215293677E-020
  -4.0800000000000018          5.1670607041172485E-020
  -4.0199999999999996          3.4831367368475855E-020
  -3.9600000000000009          1.4492477248560592E-020
  -3.9000000000000021         -9.3409631626605650E-021
  -3.8399999999999999         -3.6571873778591788E-020
  -3.7800000000000011         -6.7000407523528341E-020
  -3.7200000000000024         -1.0031441166795137E-019
  -3.6600000000000001         -1.3608135612176971E-019
  -3.6000000000000014         -1.7374240676052044E-019
  -3.5399999999999991         -2.1260873783140482E-019
  -3.4800000000000004         -2.5186080198798962E-019
  -3.4200000000000017         -2.9055088623563992E-019
  -3.3599999999999994         -3.2760925416527032E-019
  -3.3000000000000007         -3.6185418294048681E-019
  -3.2400000000000020         -3.9200637154475185E-019
  -3.1799999999999997         -4.1670782019853316E-019
  -3.1200000000000010         -4.3454513798950962E-019
  -3.0600000000000023         -4.4407753497191205E-019
  -3.0000000000000000         -4.4386942747630828E-019
  -2.9400000000000013         -4.3252704485762341E-019
  -2.8800000000000026         -4.0873926873509520E-019
  -2.8200000000000003         -3.7132165960051954E-019
  -2.7600000000000016         -3.1926343721944029E-019
  -2.6999999999999993         -2.5177620251194556E-019
  -2.6400000000000006         -1.6834404003793892E-019
  -2.5800000000000018         -6.8773002237272755E-020
  -2.5199999999999996          4.6760459082831145E-020
  -2.4600000000000009          1.7766355148871211E-019
  -2.4000000000000021          3.2288588766103562E-019
  -2.3399999999999999          4.8088362540375906E-019
  -2.2800000000000011          6.4959122499984200E-019
  -2.2200000000000024          8.2640187547439578E-019
  -2.1600000000000001          1.0081590967581643E-018
  -2.1000000000000014          1.1911599630604652E-018
  -2.0399999999999991          1.3711723702568753E-018
  -1.9800000000000004          1.5434673048102781E-018
  -1.9200000000000017          1.7028666168583204E-018
  -1.8599999999999994          1.8438090201935530E-018
  -1.8000000000000007          1.9604320430983876E-018
  -1.7400000000000020          2.0466729746682132E-018
  -1.6799999999999997          2.0963868620017154E-018
  -1.6200000000000010          2.1034811654786415E-018
  -1.5600000000000023          2.0620670464410257E-018
  -1.5000000000000000          1.9666238320136859E-018
  -1.4400000000000013          1.8121763033732291E-018
  -1.3800000000000026          1.5944811530416124E-018
  -1.3200000000000003          1.3102190940606005E-018
  -1.2600000000000016          9.5718986414045982E-019
  -1.1999999999999993          5.3450539043538827E-019
  -1.1400000000000006          4.2775462666257766E-020
  -1.0800000000000018         -5.1571729306333936E-019
  -1.0199999999999996         -1.1368604563529009E-018
 -0.96000000000000085         -1.8145769507812367E-018
 -0.90000000000000213         -2.5407210948042721E-018
 -0.83999999999999986         -3.3050062448037784E-018
 -0.78000000000000114         -4.0949747134160129E-018
 -0.72000000000000242         -4.8960144405862390E-018
 -0.66000000000000014         -5.6914241853107362E-018
 -0.60000000000000142         -6.4625343469804734E-018
 -0.53999999999999915         -7.1888906049849677E-018
 -0.48000000000000043         -7.8484937693610400E-018
 -0.42000000000000171         -8.4181092179980967E-018
 -0.35999999999999943         -8.8736359167181143E-018
 -0.30000000000000071         -9.1905401826289812E-018
 -0.24000000000000199         -9.3443488190889459E-018
 -0.17999999999999972         -9.3112053778079015E-018
 -0.12000000000000099         -9.0684669599349378E-018
  -6.0000000000002274E-002    -8.5953536586930252E-018
   0.0000000000000000         -7.8736246160426369E-018
   5.9999999999998721E-002    -6.8882840510904092E-018
  0.11999999999999744         -5.6282911922120356E-018
  0.17999999999999972         -4.0872680391219666E-018
  0.23999999999999844         -2.2641856541219637E-018
  0.30000000000000071         -1.6401501695040261E-019
  0.35999999999999943          2.2016844203506622E-018
  0.41999999999999815          4.8142465403599248E-018
  0.48000000000000043          7.6474780351318806E-018
  0.53999999999999915          1.0667349253724947E-017
  0.59999999999999787          1.3831825763498530E-017
  0.66000000000000014          1.7090846209087442E-017
  0.71999999999999886          2.0386473808337857E-017
  0.77999999999999758          2.3653225433269220E-017
  0.83999999999999986          2.6818608357690059E-017
  0.89999999999999858          2.9803864383592673E-017
  0.96000000000000085          3.2524912705308963E-017
   1.0199999999999996          3.4893525675471523E-017
   1.0799999999999983          3.6818713757971584E-017
   1.1400000000000006          3.8208328228146326E-017
   1.1999999999999993          3.8970837469719554E-017
   1.2599999999999980          3.9017319839223805E-017
   1.3200000000000003          3.8263586475143836E-017
   1.3799999999999990          3.6632447002002187E-017
   1.4399999999999977          3.4056074420966041E-017
   1.5000000000000000          3.0478421123296106E-017
   1.5599999999999987          2.5857661318009521E-017
   1.6199999999999974          2.0168594771829185E-017
   1.6799999999999997          1.3404965259696793E-017
   1.7399999999999984          5.5816308139612933E-018
   1.8000000000000007         -3.2634671877258308E-018
   1.8599999999999994         -1.3067551851151914E-017
   1.9199999999999982         -2.3741681627999599E-017
   1.9800000000000004         -3.5169710730970868E-017
   2.0399999999999991         -4.7207723088232639E-017
   2.0999999999999979         -5.9683986303176337E-017
   2.1600000000000001         -7.2399417328262846E-017
   2.2199999999999989         -8.5128675303299584E-017
   2.2799999999999976         -9.7621895481101073E-017
   2.3399999999999999         -1.0960700081531849E-016
   2.3999999999999986         -1.2079283099810268E-016
   2.4599999999999973         -1.3087281498547289E-016
   2.5199999999999996         -1.3952941897396498E-016
   2.5799999999999983         -1.4643920810148072E-016
   2.6400000000000006         -1.5127853600976652E-016
   2.6999999999999993         -1.5372980265175344E-016
   2.7599999999999980         -1.5348822576544227E-016
   2.8200000000000003         -1.5026901520432085E-016
   2.8799999999999990         -1.4381489619264305E-016
   2.9399999999999977         -1.3390377556813676E-016
   3.0000000000000000         -1.2035656456305206E-016
   3.0599999999999987         -1.0304486361910397E-016
   3.1199999999999974         -8.1898483411971388E-017
   3.1799999999999997         -5.6912581668876981E-017
   3.2399999999999984         -2.8154203671627144E-017
   3.3000000000000007          4.2319238298459079E-018
   3.3599999999999994          4.0018428930504706E-017
   3.4199999999999982          7.8891420586085814E-017
   3.4800000000000004          1.2044798926434572E-016
   3.5399999999999991          1.6419491334546719E-016
   3.5999999999999979          2.0954913962066584E-016
   3.6600000000000001          2.5583984951368940E-016
   3.7199999999999989          3.0231242031510007E-016
   3.7799999999999976          3.4813412756248591E-016
   3.8399999999999999          3.9240205056697992E-016
   3.8999999999999986          4.3415279345862659E-016
   3.9599999999999973          4.7237420842796928E-016
   4.0199999999999996          5.0601923622820715E-016
   4.0799999999999983          5.3402152957108259E-016
   4.1400000000000006          5.5531269087262191E-016
   4.1999999999999993          5.6884140692289523E-016
   4.2599999999999980          5.7359378873228704E-016
   4.3200000000000003          5.6861479505750688E-016
   4.3799999999999990          5.5303071533178958E-016
   4.4399999999999977          5.2607215450208894E-016
   4.5000000000000000          4.8709697837848874E-016
   4.5599999999999987          4.3561349888970722E-016
   4.6199999999999974          3.7130251904586946E-016
   4.6799999999999997          2.9403857911470785E-016
   4.7399999999999984          2.0390961198764023E-016
   4.7999999999999972          1.0123467029611858E-016
   4.8599999999999994         -1.3420954075522028E-017
   4.9199999999999982         -1.3923347965327104E-016
   4.9800000000000004         -2.7511176558111037E-016
   5.0399999999999991         -4.1969229305086078E-016
   5.0999999999999979         -5.7133859596136061E-016
   5.1600000000000001         -7.2814477171317126E-016
   5.2199999999999989         -8.8794394031713813E-016
   5.2799999999999976         -1.0483225138703502E-015
   5.3399999999999999         -1.2066388525166024E-015
   5.3999999999999986         -1.3600477310456421E-015
   5.4599999999999973         -1.5055304829358495E-015
   5.5199999999999996         -1.6399297453519714E-015
   5.5799999999999983         -1.7599899667780093E-015
   5.6400000000000006         -1.8624026988326002E-015
   5.6999999999999993         -1.9438562845743968E-015
   5.7599999999999980         -2.0010896047830443E-015
   5.8200000000000003         -2.0309493771216490E-015
   5.8799999999999990         -2.0304504863581238E-015
   5.9399999999999977         -1.9968379092799908E-015
   6.0000000000000000         -1.9276504990406974E-015
   6.0599999999999987         -1.8207844791133720E-015
   6.1199999999999974         -1.6745564451443166E-015
   6.1799999999999997         -1.4877647345491663E-015
   6.2399999999999984         -1.2597484055147936E-015
   6.2999999999999972         -9.9044121591365451E-016
   6.3599999999999994         -6.8042080833660156E-016
   6.4199999999999982         -3.3095299206204675E-016
   6.4800000000000004          5.5973729890978357E-017
   6.5399999999999991          4.7761967860688083E-016
   6.5999999999999979          9.3047665668563749E-016
   6.6600000000000001          1.4102608944774830E-015
   6.7199999999999989          1.9119153487081158E-015
   6.7799999999999976          2.4296270434842161E-015
   6.8399999999999999          2.9568539022439188E-015
   6.8999999999999986          3.4863675814094577E-015
   6.9599999999999973          4.0103066585377928E-015
   7.0199999999999996          4.5202464507693941E-015
   7.0799999999999983          5.0072789898543492E-015
   7.1400000000000006          5.4621088488533829E-015
   7.1999999999999993          5.8751585710549280E-015
   7.2599999999999980          6.2366896399060514E-015
   7.3200000000000003          6.5369311116235934E-015
   7.3799999999999990          6.7662194808330377E-015
   7.4399999999999977          6.9151481647533389E-015
   7.5000000000000000          6.9747210484107179E-015
   7.5599999999999987          6.9365134435485754E-015
   7.6199999999999974          6.7928369620371425E-015
   7.6799999999999997          6.5369025711388064E-015
   7.7399999999999984          6.1629861583736681E-015
   7.7999999999999972          5.6665862138225331E-015
   7.8599999999999994          5.0445845313052773E-015
   7.9199999999999982          4.2953857461384160E-015
   7.9800000000000004          3.4190596283052886E-015
   8.0399999999999991          2.4174606202238096E-015
   8.1000000000000014          1.2943350414669710E-015
   8.1599999999999966          5.5410544639652034E-017
   8.2199999999999989         -1.2915354798449523E-015
   8.2800000000000011         -2.7366266132608255E-015
   8.3399999999999963         -4.2678728101452766E-015
   8.3999999999999986         -5.8711695419442191E-015
   8.4600000000000009         -7.5303349275987596E-015
   8.5199999999999960         -9.2271698790276726E-015
   8.5799999999999983         -1.0941552243034907E-014
   8.6400000000000006         -1.2651559861737982E-014