  -24.000000000000000          0.0000000000000000     
  -23.940000000000001          0.0000000000000000     
  -23.879999999999999          0.0000000000000000     
  -23.820000000000000          0.0000000000000000     
  -23.760000000000002          0.0000000000000000     
  -23.699999999999999          0.0000000000000000     
  -23.640000000000001          0.0000000000000000     
  -23.579999999999998          0.0000000000000000     
  -23.520000000000000          0.0000000000000000     
  -23.460000000000001          0.0000000000000000     
  -23.399999999999999          0.0000000000000000     
  -23.340000000000000          0.0000000000000000     
  -23.280000000000001          0.0000000000000000     
  -23.219999999999999          0.0000000000000000     
  -23.160000000000000          0.0000000000000000     
  -23.100000000000001          0.0000000000000000     
  -23.039999999999999          0.0000000000000000     
  -22.980000000000000          0.0000000000000000     
  -22.920000000000002          0.0000000000000000     
  -22.859999999999999          0.0000000000000000     
  -22.800000000000001          0.0000000000000000     
  -22.739999999999998          0.0000000000000000     
  -22.680000000000000          0.0000000000000000     
  -22.620000000000001          0.0000000000000000     
  -22.559999999999999          0.0000000000000000     
  -22.500000000000000          0.0000000000000000     
  -22.440000000000001          0.0000000000000000     
  -22.379999999999999          0.0000000000000000     
  -22.320000000000000          0.0000000000000000     
  -22.260000000000002          0.0000000000000000     
  -22.199999999999999          0.0000000000000000     
  -22.140000000000001          0.0000000000000000     
  -22.079999999999998          0.0000000000000000     
  -22.020000000000000          0.0000000000000000     
  -21.960000000000001          0.0000000000000000     
  -21.899999999999999          0.0000000000000000     
  -21.840000000000000          0.0000000000000000     
  -21.780000000000001          0.0000000000000000     
  -21.719999999999999          0.0000000000000000     
  -21.660000000000000          0.0000000000000000     
  -21.600000000000001          0.0000000000000000     
  -21.539999999999999          0.0000000000000000     
  -21.480000000000000          0.0000000000000000     
  -21.420000000000002          0.0000000000000000     
  -21.359999999999999          0.0000000000000000     
  -21.300000000000001          0.0000000000000000     
  -21.240000000000002          0.0000000000000000     
  -21.180000000000000          0.0000000000000000     
  -21.120000000000001          0.0000000000000000     
  -21.059999999999999          0.0000000000000000     
  -21.000000000000000          0.0000000000000000     
  -20.940000000000001          0.0000000000000000     
  -20.879999999999999          0.0000000000000000     
  -20.820000000000000          0.0000000000000000     
  -20.760000000000002          0.0000000000000000     
  -20.699999999999999          0.0000000000000000     
  -20.640000000000001          0.0000000000000000     
  -20.579999999999998          0.0000000000000000     
  -20.520000000000000          0.0000000000000000     
  -20.460000000000001          0.0000000000000000     
  -20.399999999999999          0.0000000000000000     
  -20.340000000000000          0.0000000000000000     
  -20.280000000000001          0.0000000000000000     
  -20.219999999999999          0.0000000000000000     
  -20.160000000000000          0.0000000000000000     
  -20.100000000000001          0.0000000000000000     
  -20.039999999999999          0.0000000000000000     
  -19.980000000000000          0.0000000000000000     
  -19.920000000000002          0.0000000000000000     
  -19.859999999999999          0.0000000000000000     
  -19.800000000000001         -1.0561412191158736E-040
  -19.740000000000002         -2.6867529230772251E-040
  -19.680000000000000         -4.8859018395812049E-040
  -19.620000000000001         -7.4902902637935515E-040
  -19.560000000000002         -1.0222572463572917E-039
  -19.500000000000000         -1.2954854043543733E-039
  -19.440000000000001         -1.5436998866936418E-039
  -19.379999999999999         -1.7076631729399757E-039
  -19.320000000000000         -1.6011839067582335E-039
  -19.259999999999998         -1.4312775242435229E-039
  -19.199999999999999         -4.6580620758027106E-040
  -19.140000000000001          1.1805355865965779E-039
  -19.079999999999998          3.0249711686293476E-039
  -19.020000000000000          5.0914242808396039E-039
  -18.960000000000001          7.4032848864251273E-039
  -18.899999999999999          9.9799579514884080E-039
  -18.840000000000000          1.2831892456499046E-038
  -18.780000000000001          1.5953943494640138E-038
  -18.719999999999999          1.9478820230972539E-038
  -18.660000000000000          2.3163304847036650E-038
  -18.600000000000001          2.6839858627730914E-038
  -18.539999999999999          3.0556921886505331E-038
  -18.480000000000000          3.3927324053945290E-038
  -18.420000000000002          3.6432670652716844E-038
  -18.359999999999999          3.8996335114335294E-038
  -18.300000000000001          4.0358855958822126E-038
  -18.240000000000002          3.9315238257281765E-038
  -18.180000000000000          3.5749420124104922E-038
  -18.120000000000001          2.8863294453919031E-038
  -18.060000000000002          1.6171295967547864E-038
  -18.000000000000000         -3.5499611673523410E-039
  -17.940000000000001         -3.1832707049824940E-038
  -17.879999999999999         -7.1397952126742229E-038
  -17.820000000000000         -1.2144185367502447E-037
  -17.759999999999998         -1.8717929665880233E-037
  -17.699999999999999         -2.7125133137473093E-037
  -17.640000000000001         -3.7322699570958691E-037
  -17.579999999999998         -4.8334754715956334E-037
  -17.520000000000000         -6.0041178719604361E-037
  -17.460000000000001         -7.2229005718604763E-037
  -17.399999999999999         -8.4220345651502443E-037
  -17.340000000000000         -9.5094327500592248E-037
  -17.280000000000001         -1.0469670180352243E-036
  -17.219999999999999         -1.1124131882955705E-036
  -17.160000000000000         -1.1172875835447206E-036
  -17.100000000000001         -1.0409012154573977E-036
  -17.039999999999999         -8.5315131718948811E-037
  -16.980000000000000         -5.2410247134634808E-037
  -16.920000000000002         -2.0196071633197559E-038
  -16.859999999999999          7.0410581712329583E-037
  -16.800000000000001          1.6705240904618151E-036
  -16.740000000000002          2.9040793092439775E-036
  -16.680000000000000          4.4234029565942408E-036
  -16.620000000000001          6.2351301237474763E-036
  -16.560000000000002          8.3291769053681531E-036
  -16.500000000000000          1.0670854147014416E-035
  -16.440000000000001          1.3201815744969408E-035
  -16.379999999999999          1.5822445819993681E-035
  -16.320000000000000          1.8390614419654544E-035
  -16.260000000000002          2.0715593609147019E-035
  -16.199999999999999          2.2567060056002164E-035
  -16.140000000000001          2.3588383662539832E-035
  -16.079999999999998          2.3423579525947126E-035
  -16.020000000000000          2.1618388423487323E-035
  -15.960000000000001          1.7685454706575776E-035
  -15.900000000000000          1.1092516485783029E-035
  -15.840000000000000          1.2661550050862299E-036
  -15.780000000000001         -1.2361536171348282E-035
  -15.720000000000001         -3.0329524546277125E-035
  -15.660000000000000         -5.3098914973537788E-035
  -15.600000000000000         -8.0999576521263613E-035
  -15.540000000000001         -1.1416516710431196E-034
  -15.480000000000000         -1.5247107691099340E-034
  -15.420000000000000         -1.9539385561439302E-034
  -15.359999999999999         -2.4198721390661576E-034
  -15.300000000000001         -2.9077894870664535E-034
  -15.240000000000000         -3.3964210289389600E-034
  -15.180000000000000         -3.8568449311293972E-034
  -15.120000000000001         -4.2523879906719024E-034
  -15.060000000000000         -4.5377822739511270E-034
  -15.000000000000000         -4.6591375673401437E-034
  -14.940000000000000         -4.5540007361525729E-034
  -14.880000000000001         -4.1520844484707756E-034
  -14.820000000000000         -3.3768308520325933E-034
  -14.760000000000000         -2.1477220757945117E-034
  -14.700000000000001         -3.8353319944460487E-035
  -14.640000000000001          1.9934013249854964E-034
  -14.580000000000000          5.0516732495967923E-034
  -14.520000000000000          8.8441933867695870E-034
  -14.460000000000001          1.3400310290796081E-033
  -14.400000000000000          1.8717123089285954E-033
  -14.340000000000000          2.4748888371493833E-033
  -14.280000000000001          3.1397107418712166E-033
  -14.220000000000001          3.8499388928231094E-033
  -14.160000000000000          4.5818271486764527E-033
  -14.100000000000000          5.3031191109699075E-033
  -14.040000000000001          5.9721791340236634E-033
  -13.980000000000000          6.5373578446806729E-033
  -13.920000000000000          6.9366995445977416E-033
  -13.860000000000001          7.0980920086800605E-033
  -13.800000000000001          6.9400062934131792E-033
  -13.740000000000000          6.3729178452725817E-033
  -13.680000000000000          5.3015539177192474E-033
  -13.620000000000001          3.6280979505271008E-033
  -13.560000000000000          1.2564328262141413E-033
  -13.500000000000000         -1.9024826273839124E-033
  -13.440000000000001         -5.9240689844616160E-033
  -13.380000000000001         -1.0862409215102191E-032
  -13.320000000000000         -1.6741412227105217E-032
  -13.260000000000000         -2.3545024580681910E-032
  -13.200000000000001         -3.1206629827675440E-032
  -13.140000000000001         -3.9598067724506753E-032
  -13.080000000000000         -4.8518547288905398E-032
  -13.020000000000000         -5.7684096000511356E-032
  -12.960000000000001         -6.6718150338572082E-032
  -12.900000000000000         -7.5144059089348156E-032
  -12.840000000000000         -8.2380356247737953E-032
  -12.780000000000001         -8.7739797611856292E-032
  -12.720000000000001         -9.0433194494066012E-032
  -12.660000000000000         -8.9579118649380956E-032
  -12.600000000000000         -8.4220616458640526E-032
  -12.540000000000001         -7.3349945104355740E-032
  -12.480000000000000         -5.5942239988264797E-032
  -12.420000000000000         -3.0998936022699931E-032
  -12.360000000000001          2.3985756500016964E-033
  -12.300000000000001          4.5024894451663591E-032
  -12.240000000000000          9.7436513643273023E-032
  -12.180000000000000          1.5988832949280584E-031
  -12.120000000000001          2.3224242007363331E-031
  -12.060000000000000          3.1387110165793570E-031
  -12.000000000000000          4.0355728374125398E-031
  -11.940000000000001          4.9939593254182515E-031
  -11.880000000000001          5.9870146043461655E-031
  -11.820000000000000          6.9792659770836895E-031
  -11.760000000000000          7.9259900076788925E-031
  -11.700000000000001          8.7728357927766681E-031
  -11.640000000000001          9.4557756778843870E-031
  -11.580000000000000          9.9014773289782375E-031
  -11.520000000000000          1.0028171911267538E-030
  -11.460000000000001          9.7471159023598931E-031
  -11.400000000000000          8.9647146694408728E-031
  -11.340000000000000          7.5853887051300911E-031
  -11.280000000000001          5.5152252463996819E-031
  -11.220000000000001          2.6664551442315108E-031
  -11.160000000000000         -1.0372334016039791E-031
  -11.100000000000000         -5.6545894800473930E-031
  -11.040000000000001         -1.1219952713138424E-030
  -10.980000000000000         -1.7735801874567046E-030
  -10.920000000000000         -2.5164846575565265E-030
  -10.860000000000001         -3.3421915655750599E-030
  -10.800000000000001         -4.2365905586999373E-030
  -10.740000000000000         -5.1792178392104459E-030
  -10.680000000000000         -6.1425792011789426E-030
  -10.620000000000001         -7.0916059822034890E-030
  -10.560000000000000         -7.9832981865283113E-030
  -10.500000000000000         -8.7666120542391093E-030
  -10.440000000000001         -9.3826510600926687E-030
  -10.380000000000001         -9.7652252284530489E-030
  -10.320000000000000         -9.8418399031391910E-030
  -10.260000000000000         -9.5351692781065033E-030
  -10.200000000000001         -8.7650671247876071E-030
  -10.140000000000001         -7.4511594367630579E-030
  -10.080000000000000         -5.5160305195237343E-030
  -10.020000000000001         -2.8890331906009630E-030
  -9.9600000000000009          4.8931664307131479E-031
  -9.9000000000000004          4.6623828279501038E-030
  -9.8399999999999999          9.6519823034064614E-030
  -9.7800000000000011          1.5452574228942508E-029
  -9.7200000000000006          2.2025235667310702E-029
  -9.6600000000000001          2.9291595732311858E-029
  -9.6000000000000014          3.7127968648240630E-029
  -9.5400000000000009          4.5359948808294335E-029
  -9.4800000000000004          5.3757790683705973E-029
  -9.4199999999999999          6.2032915893187965E-029
  -9.3600000000000012          6.9835915496118804E-029
  -9.3000000000000007          7.6756497610511922E-029
  -9.2400000000000002          8.2325751184207874E-029
  -9.1799999999999997          8.6021121639997795E-029
  -9.1200000000000010          8.7274587100820649E-029
  -9.0600000000000005          8.5484301608852174E-029
  -9.0000000000000000          8.0030034520117517E-029
  -8.9400000000000013          7.0292684147756369E-029
  -8.8800000000000008          5.5677894823773336E-029
  -8.8200000000000003          3.5643839305829889E-029
  -8.7599999999999998          9.7329572576061525E-030
  -8.7000000000000011         -2.2392701909386615E-029
  -8.6400000000000006         -6.0913090265159470E-029
  -8.5800000000000001         -1.0580949006722962E-028
  -8.5200000000000014         -1.5682269527156111E-028
  -8.4600000000000009         -2.1341123256310769E-028
  -8.4000000000000004         -2.7471110373332978E-028
  -8.3399999999999999         -3.3949917367846875E-028
  -8.2800000000000011         -4.0616201581887197E-028
  -8.2200000000000006         -4.7267231592992255E-028
  -8.1600000000000001         -5.3657557981335394E-028
  -8.1000000000000014         -5.9498990109395853E-028
  -8.0400000000000009         -6.4462052236432433E-028
  -7.9800000000000004         -6.8179279341147705E-028
  -7.9200000000000017         -7.0250528651567792E-028
  -7.8599999999999994         -7.0250547466288684E-028
  -7.8000000000000007         -6.7738998016717527E-028
  -7.7400000000000020         -6.2273036393933040E-028
  -7.6799999999999997         -5.3422517957981449E-028
  -7.6200000000000010         -4.0787857536575214E-028
  -7.5600000000000023         -2.4020357695029970E-028
  -7.5000000000000000         -2.8448419715826815E-029
  -7.4400000000000013          2.2915737568617781E-028
  -7.3799999999999990          5.3314253285791281E-028
  -7.3200000000000003          8.8252520716070359E-028
  -7.2600000000000016          1.2745431857778527E-027
  -7.1999999999999993          1.7043922979134220E-027
  -7.1400000000000006          2.1649847052039496E-027
  -7.0800000000000018          2.6467376465848945E-027
  -7.0199999999999996          3.1374068659931020E-027
  -6.9600000000000009          3.6219796133032472E-027
  -6.9000000000000021          4.0826392185755066E-027
  -6.8399999999999999          4.4988213174469883E-027
  -6.7800000000000011          4.8473729271654650E-027
  -6.7199999999999989          5.1028292159613355E-027
  -6.6600000000000001          5.2378239591805397E-027
  -6.6000000000000014          5.2236404781175786E-027
  -6.5399999999999991          5.0309160303438158E-027
  -6.4800000000000004          4.6305005669331982E-027
  -6.4200000000000017          3.9944735912364347E-027
  -6.3599999999999994          3.0973104041167763E-027
  -6.3000000000000007          1.9171938727221456E-027
  -6.2400000000000020          4.3744799913736048E-028
  -6.1799999999999997         -1.3519307249625140E-027
  -6.1200000000000010         -3.4526656009476944E-027
  -6.0600000000000023         -5.8565724058074992E-027
  -6.0000000000000000         -8.5439510588837060E-027
  -5.9400000000000013         -1.1482049249403181E-026
  -5.8799999999999990         -1.4623671863278310E-026
  -5.8200000000000003         -1.7906001320747605E-026
  -5.7600000000000016         -2.1249703044066373E-026
  -5.6999999999999993         -2.4558405015360043E-026
  -5.6400000000000006         -2.7718639371115747E-026
  -5.5800000000000018         -3.0600300854179375E-026
  -5.5199999999999996         -3.3057740223764522E-026
  -5.4600000000000009         -3.4931561601810256E-026
  -5.4000000000000021         -3.6051166425732809E-026
  -5.3399999999999999         -3.6238125353102859E-026
  -5.2800000000000011         -3.5310407865200622E-026
  -5.2200000000000024         -3.3087496863620697E-026
  -5.1600000000000001         -2.9396359229239930E-026
  -5.1000000000000014         -2.4078263282145116E-026
  -5.0399999999999991         -1.6996362576557314E-026
  -4.9800000000000004         -8.0439521092082701E-027
  -4.9200000000000017          2.8467641041450095E-027
  -4.8599999999999994          1.5695535932535905E-026
  -4.8000000000000007          3.0464831401135709E-026
  -4.7400000000000020          4.7050736082684946E-026
  -4.6799999999999997          6.5274316705223891E-026
  -4.6200000000000010          8.4873758440574115E-026
  -4.5600000000000023          1.0549769555964871E-025
  -4.5000000000000000          1.2670012783952522E-025
  -4.4400000000000013          1.4793734210268496E-025
  -4.3799999999999990          1.6856730445594592E-025
  -4.3200000000000003          1.8785189690671124E-025
  -4.2600000000000016          2.0496246976095767E-025
  -4.1999999999999993          2.1898919976796946E-025
  -4.1400000000000006          2.2895436073879899E-025
  -4.0800000000000018          2.3383001994469449E-025
  -4.0199999999999996          2.3256021296574304E-025
  -3.9600000000000009          2.2408780720431528E-025
  -3.9000000000000021          2.0738591601397286E-025
  -3.8399999999999999          1.8149377717653022E-025
  -3.7800000000000011          1.4555675467261857E-025
  -3.7200000000000024          9.8869845566976131E-026
  -3.6600000000000001          4.0924184986014146E-026
  -3.6000000000000014         -2.8544417976908292E-026
  -3.5399999999999991         -1.0950615205298386E-025
  -3.4800000000000004         -2.0158810580249769E-025
  -3.4200000000000017         -3.0402734686950834E-025
  -3.3599999999999994         -4.1562716194501013E-025
  -3.3000000000000007         -5.3471906432747768E-025
  -3.2400000000000020         -6.5913227094920154E-025
  -3.1799999999999997         -7.8617248095696775E-025
  -3.1200000000000010         -9.1261249600335259E-025
  -3.0600000000000023         -1.0346966965805832E-024
  -3.0000000000000000         -1.1481616535958122E-024
  -2.9400000000000013         -1.2482742940320870E-024
  -2.8800000000000026         -1.3298902887715250E-024
  -2.8200000000000003         -1.3875332000501768E-024
  -2.7600000000000016         -1.4154965368855390E-024
  -2.6999999999999993         -1.4079682762595990E-024
  -2.6400000000000006         -1.3591789804910528E-024
  -2.5800000000000018         -1.2635719788007907E-024
  -2.5199999999999996         -1.1159958442210162E-024
  -2.4600000000000009         -9.1191460263707073E-025
  -2.4000000000000021         -6.4763614418647237E-025
  -2.3399999999999999         -3.2055177863790536E-025
  -2.2800000000000011          7.0615842891794663E-026
  -2.2200000000000024          5.2556240527021570E-025
  -2.1600000000000001          1.0421570553368296E-024
  -2.1000000000000014          1.6162091762241497E-024
  -2.0399999999999991          2.2412548952960632E-024
  -1.9800000000000004          2.9083751330424256E-024
  -1.9200000000000017          3.6060504957318870E-024
  -1.8599999999999994          4.3200668413080698E-024
  -1.8000000000000007          5.0334795164513693E-024
  -1.7400000000000020          5.7266484933959034E-024
  -1.6799999999999997          6.3773483315294316E-024
  -1.6200000000000010          6.9609721568960702E-024
  -1.5600000000000023          7.4508267564039803E-024
  -1.5000000000000000          7.8185330755386768E-024
  -1.4400000000000013          8.0345298635124349E-024
  -1.3800000000000026          8.0686910069576662E-024
  -1.3200000000000003          7.8910503917122528E-024
  -1.2600000000000016          7.4726329300189990E-024
  -1.1999999999999993          6.7863841996662215E-024
  -1.1400000000000006          5.8081911322355766E-024
  -1.0800000000000018          4.5179775809246325E-024
  -1.0199999999999996          2.9008584391528524E-024
 -0.96000000000000085          9.4832961582927766E-025
 -0.90000000000000213         -1.3405369996131210E-024
 -0.83999999999999986         -3.9579137751111557E-024
 -0.78000000000000114         -6.8860955666591631E-024
 -0.72000000000000242         -1.0096477486747469E-023
 -0.66000000000000014         -1.3548653122489275E-023
 -0.60000000000000142         -1.7189700938636351E-023
 -0.53999999999999915         -2.0953692482000406E-023
 -0.48000000000000043         -2.4761458911614868E-023
 -0.42000000000000171         -2.8520673338971961E-023
 -0.35999999999999943         -3.2126292577944951E-023
 -0.30000000000000071         -3.5461384894538157E-023
 -0.24000000000000199         -3.8398389498191846E-023
 -0.17999999999999972         -4.0800840266099240E-023
 -0.12000000000000099         -4.2525555799786534E-023
  -6.0000000000002274E-002    -4.3425329533323022E-023
   0.0000000000000000         -4.3352116500974918E-023
   5.9999999999998721E-002    -4.2160693686802770E-023
  0.11999999999999744         -3.9712770912267595E-023
  0.17999999999999972         -3.5881530577492906E-023
  0.23999999999999844         -3.0556517233292641E-023
  0.30000000000000071         -2.3648802770718686E-023
  0.35999999999999943         -1.5096365597634140E-023
  0.41999999999999815         -4.8695318700456896E-024
  0.48000000000000043          7.0236031477184002E-024
  0.53999999999999915          2.0531957689823790E-023
  0.59999999999999787          3.5556560201598463E-023
  0.66000000000000014          5.1946213458909951E-023
  0.71999999999999886          6.9493729011942782E-023
  0.77999999999999758          8.7933177482974909E-023
  0.83999999999999986          1.0693811014819944E-022
  0.89999999999999858          1.2612107368552249E-022
  0.96000000000000085          1.4503455672430474E-022
   1.0199999999999996          1.6317353197988119E-022
   1.0799999999999983          1.7997983662637789E-022
   1.1400000000000006          1.9484834226426885E-022
   1.1999999999999993          2.0713524615212006E-022
   1.2599999999999980          2.1616836535547850E-022
   1.3200000000000003          2.2125958253370956E-022
   1.3799999999999990          2.2171935951954457E-022
   1.4399999999999977          2.1687326562850405E-022
   1.5000000000000000          2.0608042772347055E-022
   1.5599999999999987          1.8875361257360450E-022
   1.6199999999999974          1.6438077082075178E-022
   1.6799999999999997          1.3254770839661618E-022
   1.7399999999999984          9.2961403778900349E-023
   1.8000000000000007          4.5473559624582597E-023
   1.8599999999999994         -9.8960305053116237E-024
   1.9199999999999982         -7.2937082345381011E-023
   1.9800000000000004         -1.4322808870104480E-022
   2.0399999999999991         -2.2011753685748170E-022
   2.0999999999999979         -3.0270839462858237E-022
   2.1600000000000001         -3.8984612212232369E-022
   2.2199999999999989         -4.8011134508234194E-022
   2.2799999999999976         -5.7181751926598161E-022
   2.3399999999999999         -6.6301501849589081E-022
   2.3999999999999986         -7.5150143302533078E-022
   2.4599999999999973         -8.3483933687840661E-022
   2.5199999999999996         -9.1038202614579070E-022
   2.5799999999999983         -9.7530709623997742E-022
   2.6400000000000006         -1.0266588800404290E-021
   2.6999999999999993         -1.0613990830813957E-021
   2.7599999999999980         -1.0764662796925815E-021
   2.8200000000000003         -1.0688432100665336E-021
   2.8799999999999990         -1.0356319357791872E-021
   2.9399999999999977         -9.7413617950084650E-022
   3.0000000000000000         -8.8194902277326224E-022
   3.0599999999999987         -7.5704528799389351E-022
   3.1199999999999974         -5.9787797602743338E-022
   3.1799999999999997         -4.0347407501653980E-022
   3.2399999999999984         -1.7353206567879347E-022
   3.3000000000000007          9.1485772616530500E-023
   3.3599999999999994          3.9026518507834296E-022
   3.4199999999999982          7.2056065665310318E-022
   3.4800000000000004          1.0791267040698419E-021
   3.5399999999999991          1.4616627195423024E-021
   3.5999999999999979          1.8627758557995592E-021
   3.6600000000000001          2.2759618889922533E-021
   3.7199999999999989          2.6936095987565982E-021
   3.7799999999999976          3.1070303730562010E-021
   3.8399999999999999          3.5065150717316412E-021
   3.8999999999999986          3.8814196957699616E-021
   3.9599999999999973          4.2202844942903062E-021
   4.0199999999999996          4.5109825912522397E-021
   4.0799999999999983          4.7409048789946961E-021
   4.1400000000000006          4.8971747373226779E-021
   4.1999999999999993          4.9668975221239478E-021
   4.2599999999999980          4.9374396356787379E-021
   4.3200000000000003          4.7967353128123045E-021
   4.3799999999999990          4.5336196869344043E-021
   4.4399999999999977          4.1381805947869586E-021
   4.5000000000000000          3.6021265767224671E-021
   4.5599999999999987          2.9191650555649454E-021
   4.6199999999999974          2.0853824735975138E-021
   4.6799999999999997          1.0996154687641919E-021
   4.7399999999999984         -3.6186597161850188E-023
   4.7999999999999972         -1.3166290779740649E-021
   4.8599999999999994         -2.7325673956953999E-021
   4.9199999999999982         -4.2708511338435828E-021
   4.9800000000000004         -5.9141212107652573E-021
   5.0399999999999991         -7.6406701566647990E-021
   5.0999999999999979         -9.4243839428051043E-021
   5.1600000000000001         -1.1234759340683822E-020
   5.2199999999999989         -1.3037031097245602E-020
   5.2799999999999976         -1.4792388751697854E-020
   5.3399999999999999         -1.6458311344823509E-020
   5.3999999999999986         -1.7989015346516006E-020
   5.4599999999999973         -1.9336026080491639E-020
   5.5199999999999996         -2.0448869761394420E-020
   5.5799999999999983         -2.1275878281398975E-020
   5.6400000000000006         -2.1765131541983221E-020
   5.6999999999999993         -2.1865489005618807E-020
   5.7599999999999980         -2.1527739885295987E-020
   5.8200000000000003         -2.0705837164102626E-020
   5.8799999999999990         -1.9358212690117054E-020
   5.9399999999999977         -1.7449142765941479E-020
   6.0000000000000000         -1.4950151909872094E-020
   6.0599999999999987         -1.1841432182663270E-020
   6.1199999999999974         -8.1132396101322975E-021
   6.1799999999999997         -3.7672437692619305E-021
   6.2399999999999984          1.1821937691543913E-021
   6.2999999999999972          6.7068732850942751E-021
   6.3599999999999994          1.2763737465427062E-020
   6.4199999999999982          1.9294050347638937E-020
   6.4800000000000004          2.6222804992596374E-020
   6.5399999999999991          3.3458376106055556E-020
   6.5999999999999979          4.0892480308611227E-020
   6.6600000000000001          4.8400455924323058E-020
   6.7199999999999989          5.5841887733807809E-020
   6.7799999999999976          6.3061647170448173E-020
   6.8399999999999999          6.9891294799990942E-020
   6.8999999999999986          7.6150922126702404E-020
   6.9599999999999973          8.1651419739411282E-020
   7.0199999999999996          8.6197160906906816E-020
   7.0799999999999983          8.9589114151178823E-020
   7.1400000000000006          9.1628343237968534E-020
   7.1999999999999993          9.2119898668645610E-020
   7.2599999999999980          9.0877032729366738E-020
   7.3200000000000003          8.7725744053049246E-020
   7.3799999999999990          8.2509499521057578E-020
   7.4399999999999977          7.5094180817218032E-020
   7.5000000000000000          6.5373072603547244E-020
   7.5599999999999987          5.3271922438724146E-020
   7.6199999999999974          3.8753840919499105E-020
   7.6799999999999997          2.1824041205240195E-020
   7.7399999999999984          2.5342960197499939E-021
   7.7999999999999972         -1.9013079192428402E-020
   7.8599999999999994         -4.2661721978962799E-020
   7.9199999999999982         -6.8198434868316849E-020
   7.9800000000000004         -9.5351123770467971E-020
   8.0399999999999991         -1.2378768793363079E-019
   8.1000000000000014         -1.5311587503412972E-019
   8.1599999999999966         -1.8288422846501638E-019
   8.2199999999999989         -2.1258431637382958E-019
   8.2800000000000011         -2.4165423573607589E-019
   8.3399999999999963         -2.6948332583618953E-019
   8.3999999999999986         -2.9541851022090406E-019
   8.4600000000000009         -3.1877190048600173E-019
   8.5199999999999960         -3.3882981798825960E-019
   8.5799999999999983         -3.5486331907384927E-019
   8.6400000000000006         -3.6613996855608260E-019