  -24.000000000000000          0.0000000000000000     
  -23.940000000000001          0.0000000000000000     
  -23.879999999999999          0.0000000000000000     
  -23.820000000000000          0.0000000000000000     
  -23.760000000000002          0.0000000000000000     
  -23.699999999999999          0.0000000000000000     
  -23.640000000000001         -1.4572725766796565E-029
  -23.579999999999998         -1.8626290722164042E-028
  -23.520000000000000         -1.2777948862534349E-027
  -23.460000000000001         -6.2408735162209673E-027
  -23.399999999999999         -2.4303816994391976E-026
  -23.340000000000000         -8.0177325782253217E-026
  -23.280000000000001         -2.3257872951972813E-025
  -23.219999999999999         -6.0825825185621520E-025
  -23.160000000000000         -1.4598793601501723E-024
  -23.100000000000001         -3.2581061091709672E-024
  -23.039999999999999         -6.8295517930341491E-024
  -22.980000000000000         -1.3552140034732761E-023
  -22.920000000000002         -2.5617114123279965E-023
  -22.859999999999999         -4.6361546326895854E-023
  -22.800000000000001         -8.0665825015639191E-023
  -22.739999999999998         -1.3539662765610729E-022
  -22.680000000000000         -2.1985743029216169E-022
  -22.620000000000001         -3.4618480793426614E-022
  -22.559999999999999         -5.2960153662937700E-022
  -22.500000000000000         -7.8840869597474209E-022
  -22.440000000000001         -1.1435686783613971E-021
  -22.379999999999999         -1.6177082153842578E-021
  -22.320000000000000         -2.2333517631028214E-021
  -22.260000000000002         -3.0101912633417641E-021
  -22.199999999999999         -3.9612201311613328E-021
  -22.140000000000001         -5.0875907884562462E-021
  -22.079999999999998         -6.3721319257149640E-021
  -22.020000000000000         -7.7715615131989076E-021
  -21.960000000000001         -9.2075798160240286E-021
  -21.899999999999999         -1.0557178716116447E-020
  -21.840000000000000         -1.1642757372675912E-020
  -21.780000000000001         -1.2222856451470863E-020
  -21.719999999999999         -1.1984498585270805E-020
  -21.660000000000000         -1.0538536287268725E-020
  -21.600000000000001         -7.4194692408843321E-021
  -21.539999999999999         -2.0915373577596785E-021
  -21.480000000000000          6.0371011121112774E-021
  -21.420000000000002          1.7590237145479819E-020
  -21.359999999999999          3.3187839688036448E-020
  -21.300000000000001          5.3396902275655550E-020
  -21.240000000000002          7.8668344791918145E-020
  -21.180000000000000          1.0925922858976795E-019
  -21.120000000000001          1.4514116190595549E-019
  -21.059999999999999          1.8589645621162541E-019
  -21.000000000000000          2.3060529232761626E-019
  -20.940000000000001          2.7772824337908219E-019
  -20.879999999999999          3.2499075977171469E-019
  -20.820000000000000          3.6927721665656955E-019
  -20.760000000000002          4.0654492805672987E-019
  -20.699999999999999          4.3176871502343312E-019
  -20.640000000000001          4.3892914990351040E-019
  -20.579999999999998          4.2105804385203885E-019
  -20.520000000000000          3.7035508534978392E-019
  -20.460000000000001          2.7838925424447982E-019
  -20.399999999999999          1.3639784879444698E-019
  -20.340000000000000         -6.4306518717963698E-020
  -20.280000000000001         -3.3181464790724940E-019
  -20.219999999999999         -6.7298102857227451E-019
  -20.160000000000000         -1.0926697770870388E-018
  -20.100000000000001         -1.5928958965496551E-018
  -20.039999999999999         -2.1718787857944495E-018
  -19.980000000000000         -2.8230356200727926E-018
  -19.920000000000002         -3.5339502695799944E-018
  -19.859999999999999         -4.2853662437838318E-018
  -19.800000000000001         -5.0502523442151145E-018
  -19.740000000000002         -5.7930218697972472E-018
  -19.680000000000000         -6.4689620242480328E-018
  -19.620000000000001         -7.0239682888763267E-018
  -19.560000000000002         -7.3946652182559044E-018
  -19.500000000000000         -7.5089940558397030E-018
  -19.440000000000001         -7.2873659333182424E-018
  -19.379999999999999         -6.6444527820453973E-018
  -19.320000000000000         -5.4916743926750832E-018
  -19.259999999999998         -3.7404518011529577E-018
  -19.199999999999999         -1.3062354683322487E-018
  -19.140000000000001          1.8866700413491953E-018
  -19.079999999999998          5.8995273577216971E-018
  -19.020000000000000          1.0772919246363557E-017
  -18.960000000000001          1.6519906996647436E-017
  -18.899999999999999          2.3118792875643578E-017
  -18.840000000000000          3.0505691036415030E-017
  -18.780000000000001          3.8567134576761976E-017
  -18.719999999999999          4.7133065678535310E-017
  -18.660000000000000          5.5970539801657752E-017
  -18.600000000000001          6.4778555848988515E-017
  -18.539999999999999          7.3184437624913341E-017
  -18.480000000000000          8.0742188935023684E-017
  -18.420000000000002          8.6933332407149697E-017
  -18.359999999999999          9.1170661729439400E-017
  -18.300000000000001          9.2805322508182955E-017
  -18.240000000000002          9.1137645305158631E-017
  -18.180000000000000          8.5432037961496713E-017
  -18.120000000000001          7.4936185679473791E-017
  -18.060000000000002          5.8904658659008721E-017
  -18.000000000000000          3.6626938191631111E-017
  -17.940000000000001          7.4598127104089853E-018
  -17.879999999999999         -2.9136470175447310E-017
  -17.820000000000000         -7.3558432093063777E-017
  -17.759999999999998         -1.2601701908168305E-016
  -17.699999999999999         -1.8649339335411388E-016
  -17.640000000000001         -2.5469410525819285E-016
  -17.579999999999998         -3.3000713937304435E-016
  -17.520000000000000         -4.1145968691633428E-016
  -17.460000000000001         -4.9768060096800611E-016
  -17.399999999999999         -5.8686797978494506E-016
  -17.340000000000000         -6.7676494671333940E-016
  -17.280000000000001         -7.6464494205269933E-016
  -17.219999999999999         -8.4730913403637023E-016
  -17.160000000000000         -9.2109744675153093E-016
  -17.100000000000001         -9.8191517648136903E-016
  -17.039999999999999         -1.0252773858194599E-015
  -16.980000000000000         -1.0463716185104578E-015
  -16.920000000000002         -1.0401408696066438E-015
  -16.859999999999999         -1.0013870348143897E-015
  -16.800000000000001         -9.2489492942099762E-016
  -16.740000000000002         -8.0557706056594943E-016
  -16.680000000000000         -6.3863738587706161E-016
  -16.620000000000001         -4.1975328407251766E-016
  -16.560000000000002         -1.4527255987443151E-016
  -16.500000000000000          1.8757703569158896E-016
  -16.440000000000001          5.8046968860374696E-016
  -16.379999999999999          1.0337600296836649E-015
  -16.320000000000000          1.5462613850786981E-015
  -16.260000000000002          2.1150329430188053E-015
  -16.199999999999999          2.7351791262117319E-015
  -16.140000000000001          3.3996703398794433E-015
  -16.079999999999998          4.0991895174434654E-015
  -16.020000000000000          4.8220159367499603E-015
  -15.960000000000001          5.5539483416385830E-015
  -15.900000000000000          6.2782821855723473E-015
  -15.840000000000000          6.9758398878615797E-015
  -15.780000000000001          7.6250635036673972E-015
  -15.720000000000001          8.2021791916720361E-015
  -15.660000000000000          8.6814353718104320E-015
  -15.600000000000000          9.0354140940385047E-015
  -15.540000000000001          9.2354258353489536E-015
  -15.480000000000000          9.2519821417252196E-015
  -15.420000000000000          9.0553506305325385E-015
  -15.359999999999999          8.6161823656627290E-015
  -15.300000000000001          7.9062162168723693E-015
  -15.240000000000000          6.8990451502974140E-015
  -15.180000000000000          5.5709416962741337E-015
  -15.120000000000001          3.9017285141319310E-015
  -15.060000000000000          1.8756814348307368E-015
  -15.000000000000000         -5.1754539901794937E-016
  -14.940000000000000         -3.2819970008685073E-015
  -14.880000000000001         -6.4145026848984159E-015
  -14.820000000000000         -9.9038071182022649E-015
  -14.760000000000000         -1.3729753580558708E-014
  -14.700000000000001         -1.7862538027480364E-014
  -14.640000000000001         -2.2262073366573714E-014
  -14.580000000000000         -2.6877479102127802E-014
  -14.520000000000000         -3.1646699669175993E-014
  -14.460000000000001         -3.6496308028622844E-014
  -14.400000000000000         -4.1341497966307939E-014
  -14.340000000000000         -4.6086271231461627E-014
  -14.280000000000001         -5.0623872661277775E-014
  -14.220000000000001         -5.4837457153549383E-014
  -14.160000000000000         -5.8601009184968721E-014
  -14.100000000000000         -6.1780545139899104E-014
  -14.040000000000001         -6.4235585268295373E-014
  -13.980000000000000         -6.5820896404290804E-014
  -13.920000000000000         -6.6388544861674312E-014
  -13.860000000000001         -6.5790174374988158E-014
  -13.800000000000001         -6.3879608927560142E-014
  -13.740000000000000         -6.0515653048801861E-014
  -13.680000000000000         -5.5565174888730400E-014
  -13.620000000000001         -4.8906343758859918E-014
  -13.560000000000000         -4.0432094327809584E-014
  -13.500000000000000         -3.0053708701901306E-014
  -13.440000000000001         -1.7704502161555041E-014
  -13.380000000000001         -3.3435604013842467E-015
  -13.320000000000000          1.3040514175951105E-014
  -13.260000000000000          3.1425937599888775E-014
  -13.200000000000001          5.1754145801695974E-014
  -13.140000000000001          7.3926463502426476E-014
  -13.080000000000000          9.7800954450817387E-014
  -13.020000000000000          1.2318967649598953E-013
  -12.960000000000001          1.4985635236464421E-013
  -12.900000000000000          1.7751447976252280E-013
  -12.840000000000000          2.0582608077291091E-013
  -12.780000000000001          2.3440118441649107E-013
  -12.720000000000001          2.6279795128614749E-013
  -12.660000000000000          2.9052371774868826E-013
  -12.600000000000000          3.1703698558242026E-013
  -12.540000000000001          3.4175032381695574E-013
  -12.480000000000000          3.6403449400543718E-013
  -12.420000000000000          3.8322346402543650E-013
  -12.360000000000001          3.9862099934349839E-013
  -12.300000000000001          4.0950805012069756E-013
  -12.240000000000000          4.1515163285075265E-013
  -12.180000000000000          4.1481492627610516E-013
  -12.120000000000001          4.0776852273030677E-013
  -12.060000000000000          3.9330296325770359E-013
  -12.000000000000000          3.7074238197283535E-013
  -11.940000000000001          3.3945911557230050E-013
  -11.880000000000001          2.9888937274334253E-013
  -11.820000000000000          2.4854954276965256E-013
  -11.760000000000000          1.8805325257352999E-013
  -11.700000000000001          1.1712865172837385E-013
  -11.640000000000001          3.5636010138439093E-014
  -11.580000000000000         -5.6414932373510371E-014
  -11.520000000000000         -1.5884795852736687E-013
  -11.460000000000001         -2.7130415725436815E-013
  -11.400000000000000         -3.9322682028055910E-013
  -11.340000000000000         -5.2384772497617123E-013
  -11.280000000000001         -6.6217541407014803E-013
  -11.220000000000001         -8.0698571633736187E-013
  -11.160000000000000         -9.5681506207899327E-013
  -11.100000000000000         -1.1099564525306155E-012
  -11.040000000000001         -1.2644596438796432E-012
  -10.980000000000000         -1.4181346023308035E-012
  -10.920000000000000         -1.5685595677048564E-012
  -10.860000000000001         -1.7130934304503164E-012
  -10.800000000000001         -1.8488936213457769E-012
  -10.740000000000000         -1.9729379326208516E-012
  -10.680000000000000         -2.0820520577514929E-012
  -10.620000000000001         -2.1729436230346822E-012
  -10.560000000000000         -2.2422392131609515E-012
  -10.500000000000000         -2.2865292447993333E-012
  -10.440000000000001         -2.3024153823029385E-012
  -10.380000000000001         -2.2865645136200636E-012
  -10.320000000000000         -2.2357665764923828E-012
  -10.260000000000000         -2.1469961128377270E-012
  -10.200000000000001         -2.0174764902972623E-012
  -10.140000000000001         -1.8447477017041989E-012
  -10.080000000000000         -1.6267348785402456E-012
  -10.020000000000001         -1.3618181524199364E-012
  -9.9600000000000009         -1.0489014264491547E-012
  -9.9000000000000004         -6.8748008095271284E-013
  -9.8399999999999999         -2.7770570113694034E-013
  -9.7800000000000011          1.7955307057860425E-013
  -9.7200000000000006          6.8265486464854843E-013
  -9.6600000000000001          1.2291377947263699E-012
  -9.6000000000000014          1.8156775228595991E-012
  -9.5400000000000009          2.4380569254055532E-012
  -9.4800000000000004          3.0911457645257550E-012
  -9.4199999999999999          3.7688903176404419E-012
  -9.3600000000000012          4.4643189948342703E-012
  -9.3000000000000007          5.1695603352839704E-012
  -9.2400000000000002          5.8758754549304056E-012
  -9.1799999999999997          6.5737072818782927E-012
  -9.1200000000000010          7.2527434456544095E-012
  -9.0600000000000005          7.9020005412525371E-012
  -9.0000000000000000          8.5099155823508266E-012
  -8.9400000000000013          9.0644640529210646E-012
  -8.8800000000000008          9.5532863421752275E-012
  -8.8200000000000003          9.9638296714484356E-012
  -8.7599999999999998          1.0283509192418956E-011
  -8.7000000000000011          1.0499873865499655E-011
  -8.6400000000000006          1.0600788444115892E-011
  -8.5800000000000001          1.0574622965032046E-011
  -8.5200000000000014          1.0410450892264420E-011
  -8.4600000000000009          1.0098246609730408E-011
  -8.4000000000000004          9.6290932620090097E-012
  -8.3399999999999999          8.9953829290260795E-012
  -8.2800000000000011          8.1910173928137445E-012
  -8.2200000000000006          7.2115996808060327E-012
  -8.1600000000000001          6.0546192333359912E-012
  -8.1000000000000014          4.7196232401384415E-012
  -8.0400000000000009          3.2083711627056164E-012
  -7.9800000000000004          1.5249732854124986E-012
  -7.9200000000000017         -3.2399559951167073E-013
  -7.8599999999999994         -2.3294025177243552E-012
  -7.8000000000000007         -4.4794915798677269E-012
  -7.7400000000000020         -6.7598510252839216E-012
  -7.6799999999999997         -9.1534059667913516E-012
  -7.6200000000000010         -1.1640447635394682E-011
  -7.5600000000000023         -1.4198696955235083E-011
  -7.5000000000000000         -1.6803401633236849E-011
  -7.4400000000000013         -1.9427469586756364E-011
  -7.3799999999999990         -2.2041644277704863E-011
  -7.3200000000000003         -2.4614703235044147E-011
  -7.2600000000000016         -2.7113703608951364E-011
  -7.1999999999999993         -2.9504258891238103E-011
  -7.1400000000000006         -3.1750842184779161E-011
  -7.0800000000000018         -3.3817127306596131E-011
  -7.0199999999999996         -3.5666360105873842E-011
  -6.9600000000000009         -3.7261741732140409E-011
  -6.9000000000000021         -3.8566839099123379E-011
  -6.8399999999999999         -3.9546026397563722E-011
  -6.7800000000000011         -4.0164928584227167E-011
  -6.7199999999999989         -4.0390866575246056E-011
  -6.6600000000000001         -4.0193326217462177E-011
  -6.6000000000000014         -3.9544423859457382E-011
  -6.5399999999999991         -3.8419351739097744E-011
  -6.4800000000000004         -3.6796823349651461E-011
  -6.4200000000000017         -3.4659520841876898E-011
  -6.3599999999999994         -3.1994503130527452E-011
  -6.3000000000000007         -2.8793587944641501E-011
  -6.2400000000000020         -2.5053711246135304E-011
  -6.1799999999999997         -2.0777259494008191E-011
  -6.1200000000000010         -1.5972346747205529E-011
  -6.0600000000000023         -1.0653057119704393E-011
  -6.0000000000000000         -4.8396363642401449E-012
  -5.9400000000000013          1.4413680992608059E-012
  -5.8799999999999990          8.1570264245499612E-012
  -5.8200000000000003          1.5268001444433615E-011
  -5.7600000000000016          2.2728584277227662E-011
  -5.6999999999999993          3.0486806311011840E-011
  -5.6400000000000006          3.8484598361276597E-011
  -5.5800000000000018          4.6658042282782463E-011
  -5.5199999999999996          5.4937680269329153E-011
  -5.4600000000000009          6.3248890661869427E-011
  -5.4000000000000021          7.1512335667401401E-011
  -5.3399999999999999          7.9644474436531547E-011
  -5.2800000000000011          8.7558156052864778E-011
  -5.2200000000000024          9.5163269103394505E-011
  -5.1600000000000001          1.0236746540298709E-010
  -5.1000000000000014          1.0907690588847885E-010
  -5.0399999999999991          1.1519708909274229E-010
  -4.9800000000000004          1.2063374927830591E-010
  -4.9200000000000017          1.2529373905593898E-010
  -4.8599999999999994          1.2908600522419364E-010
  -4.8000000000000007          1.3192257469773982E-010
  -4.7400000000000020          1.3371952114140586E-010
  -4.6799999999999997          1.3439800580774417E-010
  -4.6200000000000010          1.3388530675645978E-010
  -4.5600000000000023          1.3211578084169797E-010
  -4.5000000000000000          1.2903189692211280E-010
  -4.4400000000000013          1.2458517370272491E-010
  -4.3799999999999990          1.1873710017832799E-010
  -4.3200000000000003          1.1146002891813868E-010
  -4.2600000000000016          1.0273794380459034E-010
  -4.1999999999999993          9.2567230657489189E-011
  -4.1400000000000006          8.0957278910069839E-011
  -4.0800000000000018          6.7931073378233981E-011
  -4.0199999999999996          5.3525605633176190E-011
  -3.9600000000000009          3.7792208743112813E-011
  -3.9000000000000021          2.0796755849737094E-011
  -3.8399999999999999          2.6197202754749574E-012
  -3.7800000000000011         -1.6643906225201705E-011
  -3.7200000000000024         -3.6884829811481599E-011
  -3.6600000000000001         -5.7979845066865840E-011
  -3.6000000000000014         -7.9792346245141838E-011
  -3.5399999999999991         -1.0217302447143738E-010
  -3.4800000000000004         -1.2496067632875074E-010
  -3.4200000000000017         -1.4798325537881518E-010
  -3.3599999999999994         -1.7105890429781373E-010
  -3.3000000000000007         -1.9399730372710122E-010
  -3.2400000000000020         -2.1660108159561704E-010
  -3.1799999999999997         -2.3866721023279659E-010
  -3.1200000000000010         -2.5998880769738443E-010
  -3.0600000000000023         -2.8035666181960364E-010
  -3.0000000000000000         -2.9956119560009425E-010
  -2.9400000000000013         -3.1739414468215392E-010
  -2.8800000000000026         -3.3365057293976561E-010
  -2.8200000000000003         -3.4813071611954393E-010
  -2.7600000000000016         -3.6064185179210120E-010
  -2.6999999999999993         -3.7100027029629643E-010
  -2.6400000000000006         -3.7903299078131000E-010
  -2.5800000000000018         -3.8457959213437968E-010
  -2.5199999999999996         -3.8749385446155110E-010
  -2.4600000000000009         -3.8764534106801934E-010
  -2.4000000000000021         -3.8492081946280459E-010
  -2.3399999999999999         -3.7922556462313955E-010
  -2.2800000000000011         -3.7048451335301443E-010
  -2.2200000000000024         -3.5864317356332789E-010
  -2.1600000000000001         -3.4366850354318716E-010
  -2.1000000000000014         -3.2554932200966451E-010
  -2.0399999999999991         -3.0429686129087164E-010
  -1.9800000000000004         -2.7994481582190332E-010
  -1.9200000000000017         -2.5254936394105060E-010
  -1.8599999999999994         -2.2218895822023119E-010
  -1.8000000000000007         -1.8896386373093174E-010
  -1.7400000000000020         -1.5299552520119143E-010
  -1.6799999999999997         -1.1442581436904339E-010
  -1.6200000000000010         -7.3416069284848707E-011
  -1.5600000000000023         -3.0145960827275778E-011
  -1.5000000000000000          1.5187704533697856E-011
  -1.4400000000000013          6.2372366940836155E-011
  -1.3800000000000026          1.1118109799975523E-010
  -1.3200000000000003          1.6137413905526469E-010
  -1.2600000000000016          2.1270037548023895E-010
  -1.1999999999999993          2.6489900807016211E-010
  -1.1400000000000006          3.1770095703257184E-010
  -1.0800000000000018          3.7083054931887676E-010
  -1.0199999999999996          4.2400690942795348E-010
 -0.96000000000000085          4.7694543550042579E-010
 -0.90000000000000213          5.2935905343816198E-010
 -0.83999999999999986          5.8095964666912991E-010
 -0.78000000000000114          6.3145894548223158E-010
 -0.72000000000000242          6.8056988432867827E-010
 -0.66000000000000014          7.2800709237237717E-010
 -0.60000000000000142          7.7348807855712685E-010
 -0.53999999999999915          8.1673375006537166E-010
 -0.48000000000000043          8.5746880797768838E-010
 -0.42000000000000171          8.9542234622552391E-010
 -0.35999999999999943          9.3032827125984940E-010
 -0.30000000000000071          9.6192541671383484E-010
 -0.24000000000000199          9.8995757147107981E-010
 -0.17999999999999972          1.0141738474177216E-009
 -0.12000000000000099          1.0343288426798256E-009
  -6.0000000000002274E-002     1.0501823050016019E-009
   0.0000000000000000          1.0614997279008980E-009
   5.9999999999998721E-002     1.0680522223602397E-009
  0.11999999999999744          1.0696165360087516E-009
  0.17999999999999972          1.0659755378624380E-009
  0.23999999999999844          1.0569184936159020E-009
  0.30000000000000071          1.0422414585948809E-009
  0.35999999999999943          1.0217482622450164E-009
  0.41999999999999815          9.9525042621404800E-010
  0.48000000000000043          9.6256876612880385E-010
  0.53999999999999915          9.2353422510816515E-010
  0.59999999999999787          8.7798900962199016E-010
  0.66000000000000014          8.2578804421399000E-010
  0.71999999999999886          7.6680040370068943E-010
  0.77999999999999758          7.0091117960261881E-010
  0.83999999999999986          6.2802318609778385E-010
  0.89999999999999858          5.4805886344053612E-010
  0.96000000000000085          4.6096255636691486E-010
   1.0199999999999996          3.6670247986802413E-010
   1.0799999999999983          2.6527308755870439E-010
   1.1400000000000006          1.5669719042635741E-010
   1.1999999999999993          4.1028361056415879E-011
   1.2599999999999980         -8.1646890277890524E-011
   1.3200000000000003         -2.1120687016430335E-010
   1.3799999999999990         -3.4749262550512944E-010
   1.4399999999999977         -4.9030590648516266E-010
   1.5000000000000000         -6.3940727473510981E-010
   1.5599999999999987         -7.9451442452771228E-010
   1.6199999999999974         -9.5530071737256635E-010
   1.6799999999999997         -1.1213940431103569E-009
   1.7399999999999984         -1.2923752960455322E-009
   1.8000000000000007         -1.4677785001818118E-009
   1.8599999999999994         -1.6470894637503956E-009
   1.9199999999999982         -1.8297461490779085E-009
   1.9800000000000004         -2.0151390076744963E-009
   2.0399999999999991         -2.2026105070494485E-009
   2.0999999999999979         -2.3914574361142178E-009
   2.1600000000000001         -2.5809310128370048E-009
   2.2199999999999989         -2.7702387368303187E-009
   2.2799999999999976         -2.9585464689640631E-009
   2.3399999999999999         -3.1449806501946743E-009
   2.3999999999999986         -3.3286302966104827E-009
   2.4599999999999973         -3.5085506757319412E-009
   2.5199999999999996         -3.6837666034275918E-009
   2.5799999999999983         -3.8532756680312097E-009
   2.6400000000000006         -4.0160523346865413E-009
   2.6999999999999993         -4.1710515012483839E-009
   2.7599999999999980         -4.3172144513645548E-009
   2.8200000000000003         -4.4534731306179519E-009
   2.8799999999999990         -4.5787550205301220E-009
   2.9399999999999977         -4.6919887943689842E-009
   3.0000000000000000         -4.7921101935820640E-009
   3.0599999999999987         -4.8780679668332810E-009
   3.1199999999999974         -4.9488308868928708E-009
   3.1799999999999997         -5.0033928728944723E-009
   3.2399999999999984         -5.0407822338425880E-009
   3.3000000000000007         -5.0600659251761417E-009
   3.3599999999999994         -5.0603598077792590E-009
   3.4199999999999982         -5.0408344762360246E-009
   3.4800000000000004         -5.0007237896765122E-009
   3.5399999999999991         -4.9393321044075165E-009
   3.5999999999999979         -4.8560436503239459E-009
   3.6600000000000001         -4.7503305722958724E-009
   3.7199999999999989         -4.6217601495820459E-009
   3.7799999999999976         -4.4700050167735896E-009
   3.8399999999999999         -4.2948514093770852E-009
   3.8999999999999986         -4.0962068459976201E-009
   3.9599999999999973         -3.8741086210913805E-009
   4.0199999999999996         -3.6287325103982936E-009
   4.0799999999999983         -3.3604011605953429E-009
   4.1400000000000006         -3.0695908498693723E-009
   4.1999999999999993         -2.7569399354407644E-009
   4.2599999999999980         -2.4232551370049312E-009
   4.3200000000000003         -2.0695182791886486E-009
   4.3799999999999990         -1.6968923710541767E-009
   4.4399999999999977         -1.3067263600622908E-009
   4.5000000000000000         -9.0056011965912979E-010
   4.5599999999999987         -4.8012783854979436E-010
   4.6199999999999974         -4.7360577408196464E-011
   4.6799999999999997          3.9561167582393037E-010
   4.7399999999999984          8.4645928289697602E-010
   4.7999999999999972          1.3026535244666895E-009
   4.8599999999999994          1.7614679552586430E-009
   4.9199999999999982          2.2199810726868485E-009
   4.9800000000000004          2.6750796844208519E-009
   5.0399999999999991          3.1234645153305751E-009
   5.0999999999999979          3.5616561422402736E-009
   5.1600000000000001          3.9860025541694850E-009
   5.2199999999999989          4.3926879696747628E-009
   5.2799999999999976          4.7777413661146266E-009
   5.3399999999999999          5.1370497946473797E-009
   5.3999999999999986          5.4663672794215599E-009
   5.4599999999999973          5.7613303833535003E-009
   5.5199999999999996          6.0174690860708964E-009
   5.5799999999999983          6.2302239004861411E-009
   5.6400000000000006          6.3949598048659354E-009
   5.6999999999999993          6.5069832505265323E-009
   5.7599999999999980          6.5615565312511304E-009
   5.8200000000000003          6.5539169180721513E-009
   5.8799999999999990          6.4792930215326450E-009
   5.9399999999999977          6.3329217403245695E-009
   6.0000000000000000          6.1100676687552590E-009
   6.0599999999999987          5.8060381428379482E-009
   6.1199999999999974          5.4162035593297989E-009
   6.1799999999999997          4.9360142705381261E-009
   6.2399999999999984          4.3610187478634457E-009
   6.2999999999999972          3.6868813057462198E-009
   6.3599999999999994          2.9093988191949721E-009
   6.4199999999999982          2.0245199764674353E-009
   6.4800000000000004          1.0283611887756491E-009
   6.5399999999999991         -8.2775008403995436E-011
   6.5999999999999979         -1.3123823516800939E-009
   6.6600000000000001         -2.6637328075686537E-009
   6.7199999999999989         -4.1398602644414141E-009
   6.7799999999999976         -5.7435385583823830E-009
   6.8399999999999999         -7.4772655893292841E-009
   6.8999999999999986         -9.3432434293900923E-009
   6.9599999999999973         -1.1343357030149419E-008
   7.0199999999999996         -1.3479158452388983E-008
   7.0799999999999983         -1.5751835217576064E-008
   7.1400000000000006         -1.8162196292888366E-008
   7.1999999999999993         -2.0710639303960748E-008
   7.2599999999999980         -2.3397135260291727E-008
   7.3200000000000003         -2.6221191493651687E-008
   7.3799999999999990         -2.9181826275254454E-008
   7.4399999999999977         -3.2277538085055129E-008
   7.5000000000000000         -3.5506276817868348E-008
   7.5599999999999987         -3.8865396036524092E-008
   7.6199999999999974         -4.2351629495827225E-008
   7.6799999999999997         -4.5961054273857909E-008
   7.7399999999999984         -4.9689027442419345E-008
   7.7999999999999972         -5.3530165898326185E-008
   7.8599999999999994         -5.7478291189371848E-008
   7.9199999999999982         -6.1526386926392220E-008
   7.9800000000000004         -6.5666531041032150E-008
   8.0399999999999991         -6.9889874877065578E-008
   8.1000000000000014         -7.4186554193296146E-008
   8.1599999999999966         -7.8545650542935118E-008
   8.2199999999999989         -8.2955145206638783E-008
   8.2800000000000011         -8.7401825456636472E-008
   8.3399999999999963         -9.1871264287844792E-008
   8.3999999999999986         -9.6347710122970857E-008
   8.4600000000000009         -1.0081404633311214E-007
   8.5199999999999960         -1.0525171849406760E-007
   8.5799999999999983         -1.0964066964781102E-007
   8.6400000000000006         -1.1395925307977122E-007