  -24.000000000000000          0.0000000000000000     
  -23.940000000000001          0.0000000000000000     
  -23.879999999999999          0.0000000000000000     
  -23.820000000000000          0.0000000000000000     
  -23.760000000000002          0.0000000000000000     
  -23.699999999999999          0.0000000000000000     
  -23.640000000000001          0.0000000000000000     
  -23.579999999999998          0.0000000000000000     
  -23.520000000000000         -2.1236920476053110E-039
  -23.460000000000001         -3.5563815315773555E-038
  -23.399999999999999         -3.1176391943489130E-037
  -23.340000000000000         -1.9275182255683952E-036
  -23.280000000000001         -9.3789056197540994E-036
  -23.219999999999999         -3.8229164446364605E-035
  -23.160000000000000         -1.3565603135480562E-034
  -23.100000000000001         -4.3012630079514569E-034
  -23.039999999999999         -1.2416053416474683E-033
  -22.980000000000000         -3.3086154485197073E-033
  -22.920000000000002         -8.2271491465286716E-033
  -22.859999999999999         -1.9252244334856942E-032
  -22.800000000000001         -4.2688468103582401E-032
  -22.739999999999998         -9.0191326126744390E-032
  -22.680000000000000         -1.8241242938133384E-031
  -22.620000000000001         -3.5453712353093808E-031
  -22.559999999999999         -6.6436328053448163E-031
  -22.500000000000000         -1.2036232168021469E-030
  -22.440000000000001         -2.1132087097179320E-030
  -22.379999999999999         -3.6027622954414680E-030
  -22.320000000000000         -5.9746938429822417E-030
  -22.260000000000002         -9.6519296908439484E-030
  -22.199999999999999         -1.5207605658759828E-029
  -22.140000000000001         -2.3393278996567746E-029
  -22.079999999999998         -3.5160131462460713E-029
  -22.020000000000000         -5.1664941529230827E-029
  -21.960000000000001         -7.4249414430111381E-029
  -21.899999999999999         -1.0437775477104511E-028
  -21.840000000000000         -1.4351379095273894E-028
  -21.780000000000001         -1.9291549828084790E-028
  -21.719999999999999         -2.5332125590628848E-028
  -21.660000000000000         -3.2450219927020475E-028
  -21.600000000000001         -4.0465389660142017E-028
  -21.539999999999999         -4.8960670323176101E-028
  -21.480000000000000         -5.7184078762899634E-028
  -21.420000000000002         -6.3930598352813122E-028
  -21.359999999999999         -6.7406626360219798E-028
  -21.300000000000001         -6.5081923430123890E-028
  -21.240000000000002         -5.3536787999438876E-028
  -21.180000000000000         -2.8317189314208914E-028
  -21.120000000000001          1.6184370527260541E-028
  -21.059999999999999          8.6799859728802933E-028
  -21.000000000000000          1.9157967620303990E-027
  -20.940000000000001          3.3967460728128592E-027
  -20.879999999999999          5.4106690922351890E-027
  -20.820000000000000          8.0610782885635514E-027
  -20.760000000000002          1.1448140447619628E-026
  -20.699999999999999          1.5658818184236646E-026
  -20.640000000000001          2.0753771313837327E-026
  -20.579999999999998          2.6750772500723671E-026
  -20.520000000000000          3.3604447777904011E-026
  -20.460000000000001          4.1182480046732137E-026
  -20.399999999999999          4.9238630229995313E-026
  -20.340000000000000          5.7383424391313376E-026
  -20.280000000000001          6.5053619346085131E-026
  -20.219999999999999          7.1482300629321271E-026
  -20.160000000000000          7.5671846265864084E-026
  -20.100000000000001          7.6372872509300663E-026
  -20.039999999999999          7.2072524806542114E-026
  -19.980000000000000          6.0996504064976694E-026
  -19.920000000000002          4.1129410753254545E-026
  -19.859999999999999          1.0258485755320417E-026
  -19.800000000000001         -3.3953872410634504E-026
  -19.740000000000002         -9.3863811535401256E-026
  -19.680000000000000         -1.7170095253638049E-025
  -19.620000000000001         -2.6938107146579051E-025
  -19.560000000000002         -3.8827354292828746E-025
  -19.500000000000000         -5.2892322764470103E-025
  -19.440000000000001         -6.9072876649169694E-025
  -19.379999999999999         -8.7158197494796409E-025
  -19.320000000000000         -1.0674774983624922E-024
  -19.259999999999998         -1.2721059232280853E-024
  -19.199999999999999         -1.4764478299293816E-024
  -19.140000000000001         -1.6683931122919774E-024
  -19.079999999999998         -1.8324134074029409E-024
  -19.020000000000000         -1.9493216111882290E-024
  -18.960000000000001         -1.9961586903429164E-024
  -18.899999999999999         -1.9462501142242963E-024
  -18.840000000000000         -1.7694803510903379E-024
  -18.780000000000001         -1.4328330436635877E-024
  -18.719999999999999         -9.0124547615048285E-025
  -18.660000000000000         -1.3882183176660160E-025
  -18.600000000000001          8.8955065928714392E-025
  -18.539999999999999          2.2161546796541590E-024
  -18.480000000000000          3.8679444286037473E-024
  -18.420000000000002          5.8635996845659540E-024
  -18.359999999999999          8.2101423503767622E-024
  -18.300000000000001          1.0899169444326936E-023
  -18.240000000000002          1.3902767641030366E-023
  -18.180000000000000          1.7169231129545278E-023
  -18.120000000000001          2.0618713681448549E-023
  -18.060000000000002          2.4138995363893519E-023
  -18.000000000000000          2.7581598269226885E-023
  -17.940000000000001          3.0758508924040936E-023
  -17.879999999999999          3.3439789038961478E-023
  -17.820000000000000          3.5352432853625165E-023
  -17.759999999999998          3.6180777297771429E-023
  -17.699999999999999          3.5568909982799187E-023
  -17.640000000000001          3.3125350141373206E-023
  -17.579999999999998          2.8430505038093818E-023
  -17.520000000000000          2.1047060769452065E-023
  -17.460000000000001          1.0533805352562729E-023
  -17.399999999999999         -3.5370776710490888E-024
  -17.340000000000000         -2.1559001310630421E-023
  -17.280000000000001         -4.3866225059035407E-023
  -17.219999999999999         -7.0705580346440014E-023
  -17.160000000000000         -1.0220485876296179E-022
  -17.100000000000001         -1.3833830012748987E-022
  -17.039999999999999         -1.7889011273632773E-022
  -16.980000000000000         -2.2341651716589111E-022
  -16.920000000000002         -2.7120777445918869E-022
  -16.859999999999999         -3.2125152425179649E-022
  -16.800000000000001         -3.7219879842636031E-022
  -16.740000000000002         -4.2233499618451597E-022
  -16.680000000000000         -4.6955725109939872E-022
  -16.620000000000001         -5.1136112150405735E-022
  -16.560000000000002         -5.4483833879347979E-022
  -16.500000000000000         -5.6668826047987333E-022
  -16.440000000000001         -5.7324544233493813E-022
  -16.379999999999999         -5.6052575378264843E-022
  -16.320000000000000         -5.2429319350682467E-022
  -16.260000000000002         -4.6014867829339277E-022
  -16.199999999999999         -3.6364369129969515E-022
  -16.140000000000001         -2.3041843756893539E-022
  -16.079999999999998         -5.6365629092358680E-023
  -16.020000000000000          1.6218077899817942E-022
  -15.960000000000001          4.2823231150110983E-022
  -15.900000000000000          7.4391144373159585E-022
  -15.840000000000000          1.1101981532020555E-021
  -15.780000000000001          1.5266627482591385E-021
  -15.720000000000001          1.9911884688827695E-021
  -15.660000000000000          2.4996940012722347E-021
  -15.600000000000000          3.0458602130302247E-021
  -15.540000000000001          3.6208738748157690E-021
  -15.480000000000000          4.2131950693628796E-021
  -15.420000000000000          4.8083632921286016E-021
  -15.359999999999999          5.3888516285932895E-021
  -15.300000000000001          5.9339827322063442E-021
  -15.240000000000000          6.4199217712743347E-021
  -15.180000000000000          6.8197546708423549E-021
  -15.120000000000001          7.1036737361260028E-021
  -15.060000000000000          7.2392700845811557E-021
  -15.000000000000000          7.1919592088750080E-021
  -14.940000000000000          6.9255365855389544E-021
  -14.880000000000001          6.4028789495691269E-021
  -14.820000000000000          5.5867936909577833E-021
  -14.760000000000000          4.4410214837981108E-021
  -14.700000000000001          2.9313822752506890E-021
  -14.640000000000001          1.0270720778625202E-021
  -14.580000000000000         -1.2979055660815392E-021
  -14.520000000000000         -4.0631945069477348E-021
  -14.460000000000001         -7.2804338559481768E-021
  -14.400000000000000         -1.0951535432086735E-020
  -14.340000000000000         -1.5066915524610493E-020
  -14.280000000000001         -1.9603714470041698E-020
  -14.220000000000001         -2.4524065716161730E-020
  -14.160000000000000         -2.9773430706493010E-020
  -14.100000000000000         -3.5279084112076047E-020
  -14.040000000000001         -4.0948777029748477E-020
  -13.980000000000000         -4.6669672629173117E-020
  -13.920000000000000         -5.2307581642680877E-020
  -13.860000000000001         -5.7706612636633790E-020
  -13.800000000000001         -6.2689247004812660E-020
  -13.740000000000000         -6.7056958231357546E-020
  -13.680000000000000         -7.0591413187123986E-020
  -13.620000000000001         -7.3056319745685193E-020
  -13.560000000000000         -7.4199979446847478E-020
  -13.500000000000000         -7.3758607049569487E-020
  -13.440000000000001         -7.1460466725711555E-020
  -13.380000000000001         -6.7030777979232481E-020
  -13.320000000000000         -6.0197523064394304E-020
  -13.260000000000000         -5.0698069647302943E-020
  -13.200000000000001         -3.8286648206029463E-020
  -13.140000000000001         -2.2742557695914725E-020
  -13.080000000000000         -3.8791491919453511E-021
  -13.020000000000000          1.8446530848933844E-020
  -12.960000000000001          4.4323614792291084E-020
  -12.900000000000000          7.3776861335228422E-020
  -12.840000000000000          1.0675586030105256E-019
  -12.780000000000001          1.4312419659765161E-019
  -12.720000000000001          1.8264876719251842E-019
  -12.660000000000000          2.2498958939033477E-019
  -12.600000000000000          2.6969026069204342E-019
  -12.540000000000001          3.1616932820569875E-019
  -12.480000000000000          3.6371321775509554E-019
  -12.420000000000000          4.1147059771585235E-019
  -12.360000000000001          4.5844884352385836E-019
  -12.300000000000001          5.0351307811200330E-019
  -12.240000000000000          5.4538759309564059E-019
  -12.180000000000000          5.8266087653794512E-019
  -12.120000000000001          6.1379387077429888E-019
  -12.060000000000000          6.3713225853664780E-019
  -12.000000000000000          6.5092277665358844E-019
  -11.940000000000001          6.5333413402918350E-019
  -11.880000000000001          6.4248281182197055E-019
  -11.820000000000000          6.1646317587445911E-019
  -11.760000000000000          5.7338325677936013E-019
  -11.700000000000001          5.1140526071190330E-019
  -11.640000000000001          4.2879087513806314E-019
  -11.580000000000000          3.2395150546129638E-019
  -11.520000000000000          1.9550281126839762E-019
  -11.460000000000001          4.2323262231237987E-020
  -11.400000000000000         -1.3638375053104583E-019
  -11.340000000000000         -3.4102564692484933E-019
  -11.280000000000001         -5.7155407794905110E-019
  -11.220000000000001         -8.2739828987166589E-019
  -11.160000000000000         -1.1073986409110668E-018
  -11.100000000000000         -1.4097422740092038E-018
  -11.040000000000001         -1.7319022714644267E-018
  -10.980000000000000         -2.0705825651011838E-018
  -10.920000000000000         -2.4216693802641413E-018
  -10.860000000000001         -2.7801921855441410E-018
  -10.800000000000001         -3.1402952623015822E-018
  -10.740000000000000         -3.4952240433858802E-018
  -10.680000000000000         -3.8373247399670793E-018
  -10.620000000000001         -4.1580635456774465E-018
  -10.560000000000000         -4.4480654520853745E-018
  -10.500000000000000         -4.6971725253748291E-018
  -10.440000000000001         -4.8945297331499035E-018
  -10.380000000000001         -5.0286926012802060E-018
  -10.320000000000000         -5.0877622302243128E-018
  -10.260000000000000         -5.0595494870445070E-018
  -10.200000000000001         -4.9317661670935948E-018
  -10.140000000000001         -4.6922445075494514E-018
  -10.080000000000000         -4.3291840690263979E-018
  -10.020000000000001         -3.8314275587394442E-018
  -9.9600000000000009         -3.1887595725851893E-018
  -9.9000000000000004         -2.3922285642370493E-018
  -9.8399999999999999         -1.4344908940215975E-018
  -9.7800000000000011         -3.1016682232742098E-019
  -9.7200000000000006          9.8378922489797546E-019
  -9.6600000000000001          2.4477167962728501E-018
  -9.6000000000000014          4.0788718098136443E-018
  -9.5400000000000009          5.8710661946094900E-018
  -9.4800000000000004          7.8143159700219528E-018
  -9.4199999999999999          9.8945182171443777E-018
  -9.3600000000000012          1.2093162063183472E-017
  -9.3000000000000007          1.4387078873747255E-017
  -9.2400000000000002          1.6748255562854442E-017
  -9.1799999999999997          1.9143698235586076E-017
  -9.1200000000000010          2.1535385609228205E-017
  -9.0600000000000005          2.3880294204884989E-017
  -9.0000000000000000          2.6130528187516665E-017
  -8.9400000000000013          2.8233543095345222E-017
  -8.8800000000000008          3.0132493107154842E-017
  -8.8200000000000003          3.1766690078449660E-017
  -8.7599999999999998          3.3072190815116428E-017
  -8.7000000000000011          3.3982508558864633E-017
  -8.6400000000000006          3.4429471813472420E-017
  -8.5800000000000001          3.4344206583573151E-017
  -8.5200000000000014          3.3658245128422897E-017
  -8.4600000000000009          3.2304773587185888E-017
  -8.4000000000000004          3.0219994047413376E-017
  -8.3399999999999999          2.7344590925481365E-017
  -8.2800000000000011          2.3625309932879965E-017
  -8.2200000000000006          1.9016596465540636E-017
  -8.1600000000000001          1.3482315300886237E-017
  -8.1000000000000014          6.9974889437165131E-018
  -8.0400000000000009         -4.4993230394370795E-019
  -7.9800000000000004         -8.8573285979380388E-018
  -7.9200000000000017         -1.8205717997017180E-017
  -7.8599999999999994         -2.8458142827910699E-017
  -7.8000000000000007         -3.9558161227455373E-017
  -7.7400000000000020         -5.1428531477827280E-017
  -7.6799999999999997         -6.3970046484207699E-017
  -7.6200000000000010         -7.7060623722742292E-017
  -7.5600000000000023         -9.0554691590052402E-017
  -7.5000000000000000         -1.0428285953958315E-016
  -7.4400000000000013         -1.1805196656512326E-016
  -7.3799999999999990         -1.3164549466668418E-016
  -7.3200000000000003         -1.4482445659886941E-016
  -7.2600000000000016         -1.5732864515566652E-016
  -7.1999999999999993         -1.6887850698370212E-016
  -7.1400000000000006         -1.7917736596985113E-016
  -7.0800000000000018         -1.8791428222084845E-016
  -7.0199999999999996         -1.9476736894160792E-016
  -6.9600000000000009         -1.9940765090547974E-016
  -6.9000000000000021         -2.0150346330313839E-016
  -6.8399999999999999         -2.0072532832324613E-016
  -6.7800000000000011         -1.9675132217174162E-016
  -6.7199999999999989         -1.8927288303147252E-016
  -6.6600000000000001         -1.7800096352472475E-016
  -6.6000000000000014         -1.6267262474262159E-016
  -6.5399999999999991         -1.4305779204998755E-016
  -6.4800000000000004         -1.1896628578494576E-016
  -6.4200000000000017         -9.0254914935500208E-017
  -6.3599999999999994         -5.6834588841700486E-017
  -6.3000000000000007         -1.8677350193065635E-017
  -6.2400000000000020          2.4176827413636800E-017
  -6.1799999999999997          7.1613530503741170E-017
  -6.1200000000000010          1.2343791112474190E-016
  -6.0600000000000023          1.7936920591655073E-016
  -6.0000000000000000          2.3903609684649066E-016
  -5.9400000000000013          3.0197280680631885E-016
  -5.8799999999999990          3.6761627935588706E-016
  -5.8200000000000003          4.3530445225739774E-016
  -5.7600000000000016          5.0427582918551743E-016
  -5.6999999999999993          5.7367043394886141E-016
  -5.6400000000000006          6.4253221221640776E-016
  -5.5800000000000018          7.0981322603164597E-016
  -5.5199999999999996          7.7437925901347876E-016
  -5.4600000000000009          8.3501746953784492E-016
  -5.4000000000000021          8.9044578982676385E-016
  -5.3399999999999999          9.3932409019939731E-016
  -5.2800000000000011          9.8026744947832936E-016
  -5.2200000000000024          1.0118611860236985E-015
  -5.1600000000000001          1.0326776920652391E-015
  -5.1000000000000014          1.0412949486868731E-015
  -5.0399999999999991          1.0363172660728411E-015
  -4.9800000000000004          1.0163966000105922E-015
  -4.9200000000000017          9.8025642440602218E-016
  -4.8599999999999994          9.2671588947659153E-016
  -4.8000000000000007          8.5471531217476327E-016
  -4.7400000000000020          7.6334246538714438E-016
  -4.6799999999999997          6.5185916299991107E-016
  -4.6200000000000010          5.1972822803204881E-016
  -4.5600000000000023          3.6663948491164814E-016
  -4.5000000000000000          1.9253610364114884E-016
  -4.4400000000000013         -2.3606933648122066E-018
  -4.3799999999999990         -2.1752834458544981E-016
  -4.3200000000000003         -4.5212107639159919E-016
  -4.2600000000000016         -7.0495096153599824E-016
  -4.1999999999999993         -9.7447168931755636E-016
  -4.1400000000000006         -1.2587650317764665E-015
  -4.0800000000000018         -1.5555319293912955E-015
  -4.0199999999999996         -1.8620871068354024E-015
  -3.9600000000000009         -2.1753584595437100E-015
  -3.9000000000000021         -2.4918916050896541E-015
  -3.8399999999999999         -2.8078599780824155E-015
  -3.7800000000000011         -3.1190803871356174E-015
  -3.7200000000000024         -3.4210349257780608E-015
  -3.6600000000000001         -3.7088989815161774E-015
  -3.6000000000000014         -3.9775761018066612E-015
  -3.5399999999999991         -4.2217389526884230E-015
  -3.4800000000000004         -4.4358772768670929E-015
  -3.4200000000000017         -4.6143531298685978E-015
  -3.3599999999999994         -4.7514601161302469E-015
  -3.3000000000000007         -4.8414929226935008E-015
  -3.2400000000000020         -4.8788188171682537E-015
  -3.1799999999999997         -4.8579570415764299E-015
  -3.1200000000000010         -4.7736612797415448E-015
  -3.0600000000000023         -4.6210077162880096E-015
  -3.0000000000000000         -4.3954875387390110E-015
  -2.9400000000000013         -4.0930990716307912E-015
  -2.8800000000000026         -3.7104438840813317E-015
  -2.8200000000000003         -3.2448221378653595E-015
  -2.7600000000000016         -2.6943287546439930E-015
  -2.6999999999999993         -2.0579446459921445E-015
  -2.6400000000000006         -1.3356288804734116E-015
  -2.5800000000000018         -5.2840208406138656E-016
  -2.5199999999999996          3.6157325065610161E-016
  -2.4600000000000009          1.3309225621092169E-015
  -2.4000000000000021          2.3749966553598523E-015
  -2.3399999999999999          3.4878211607159170E-015
  -2.2800000000000011          4.6620564976731141E-015
  -2.2200000000000024          5.8889734473591265E-015
  -2.1600000000000001          7.1584430262293891E-015
  -2.1000000000000014          8.4589419574917590E-015
  -2.0399999999999991          9.7775786310952254E-015
  -1.9800000000000004          1.1100134739770067E-014
  -1.9200000000000017          1.2411127137869205E-014
  -1.8599999999999994          1.3693893158922530E-014
  -1.8000000000000007          1.4930692972973998E-014
  -1.7400000000000020          1.6102836069439354E-014
  -1.6799999999999997          1.7190825795246719E-014
  -1.6200000000000010          1.8174529834487366E-014
  -1.5600000000000023          1.9033368082248028E-014
  -1.5000000000000000          1.9746521495300910E-014
  -1.4400000000000013          2.0293155693163246E-014
  -1.3800000000000026          2.0652674622005133E-014
  -1.3200000000000003          2.0804972610059167E-014
  -1.2600000000000016          2.0730714616061556E-014
  -1.1999999999999993          2.0411621328227819E-014
  -1.1400000000000006          1.9830763103678125E-014
  -1.0800000000000018          1.8972864471977990E-014
  -1.0199999999999996          1.7824604281123102E-014
 -0.96000000000000085          1.6374923665227520E-014
 -0.90000000000000213          1.4615320747715916E-014
 -0.83999999999999986          1.2540149833266120E-014
 -0.78000000000000114          1.0146897109431897E-014
 -0.72000000000000242          7.4364448303904441E-015
 -0.66000000000000014          4.4133185273979273E-015
 -0.60000000000000142          1.0859009978093204E-015
 -0.53999999999999915         -2.5333683684359877E-015
 -0.48000000000000043         -6.4278404927604790E-015
 -0.42000000000000171         -1.0576527124555873E-014
 -0.35999999999999943         -1.4954028641410350E-014
 -0.30000000000000071         -1.9530480776021912E-014
 -0.24000000000000199         -2.4271571182781156E-014
 -0.17999999999999972         -2.9138604168740189E-014
 -0.12000000000000099         -3.4088594815302618E-014
  -6.0000000000002274E-002    -3.9074441919667220E-014
   0.0000000000000000         -4.4045147571627225E-014
   5.9999999999998721E-002    -4.8946097120334103E-014
  0.11999999999999744         -5.3719397527026521E-014
  0.17999999999999972         -5.8304255973128411E-014
  0.23999999999999844         -6.2637446934324664E-014
  0.30000000000000071         -6.6653808769510445E-014
  0.35999999999999943         -7.0286810261144163E-014
  0.41999999999999815         -7.3469145562320763E-014
  0.48000000000000043         -7.6133400299647193E-014
  0.53999999999999915         -7.8212756357597159E-014
  0.59999999999999787         -7.9641723611802464E-014
  0.66000000000000014         -8.0356905257269143E-014
  0.71999999999999886         -8.0297813112811658E-014
  0.77999999999999758         -7.9407655162493367E-014
  0.83999999999999986         -7.7634195196037995E-014
  0.89999999999999858         -7.4930587761145891E-014
  0.96000000000000085         -7.1256174100694534E-014
   1.0199999999999996         -6.6577344057944967E-014
   1.0799999999999983         -6.0868303691188243E-014
   1.1400000000000006         -5.4111872316526980E-014
   1.1999999999999993         -4.6300180987554389E-014
   1.2599999999999980         -3.7435378279706810E-014
   1.3200000000000003         -2.7530228824235429E-014
   1.3799999999999990         -1.6608685786079197E-014
   1.4399999999999977         -4.7063521987669891E-015
   1.5000000000000000          8.1291217239370529E-015
   1.5599999999999987          2.1837752503642476E-014
   1.6199999999999974          3.6347014304822031E-014
   1.6799999999999997          5.1571776616173545E-014
   1.7399999999999984          6.7414342213810488E-014
   1.8000000000000007          8.3764580277274659E-014
   1.8599999999999994          1.0050024507674344E-013
   1.9199999999999982          1.1748736956468524E-013
   1.9800000000000004          1.3458085643794777E-013
   2.0399999999999991          1.5162515878858636E-013
   2.0999999999999979          1.6845507841450010E-013
   2.1600000000000001          1.8489678875776683E-013
   2.2199999999999989          2.0076891995254365E-013
   2.2799999999999976          2.1588379894184690E-013
   2.3399999999999999          2.3004884484678177E-013
   2.3999999999999986          2.4306802574999343E-013
   2.4599999999999973          2.5474350968700879E-013
   2.5199999999999996          2.6487734394537332E-013
   2.5799999999999983          2.7327331367871182E-013
   2.6400000000000006          2.7973880893926918E-013
   2.6999999999999993          2.8408679562235025E-013
   2.7599999999999980          2.8613788709944225E-013
   2.8200000000000003          2.8572237061785377E-013
   2.8799999999999990          2.8268233294815651E-013
   2.9399999999999977          2.7687376381380718E-013
   3.0000000000000000          2.6816859982681033E-013
   3.0599999999999987          2.5645687987948730E-013
   3.1199999999999974          2.4164871066960415E-013
   3.1799999999999997          2.2367617713051267E-013
   3.2399999999999984          2.0249528771161021E-013
   3.3000000000000007          1.7808758686069326E-013
   3.3599999999999994          1.5046183480790626E-013
   3.4199999999999982          1.1965543605374216E-013
   3.4800000000000004          8.5735719335189135E-014
   3.5399999999999991          4.8800966415007947E-014
   3.5999999999999979          8.9812877317728797E-015
   3.6600000000000001         -3.3560710472350671E-014
   3.7199999999999989         -7.8629613601076469E-014
   3.7799999999999976         -1.2599707217549829E-013
   3.8399999999999999         -1.7540195852957457E-013
   3.8999999999999986         -2.2655079083993817E-013
   3.9599999999999973         -2.7911860970394407E-013
   4.0199999999999996         -3.3274992543760114E-013
   4.0799999999999983         -3.8706012048358506E-013
   4.1400000000000006         -4.4163714141932102E-013
   4.1999999999999993         -4.9604347037319943E-013
   4.2599999999999980         -5.4981847747220738E-013
   4.3200000000000003         -6.0248089241778158E-013
   4.3799999999999990         -6.5353187639496974E-013
   4.4399999999999977         -7.0245801958049578E-013
   4.5000000000000000         -7.4873478650214999E-013
   4.5599999999999987         -7.9183034254774273E-013
   4.6199999999999974         -8.3120924687527750E-013
   4.6799999999999997         -8.6633662401739505E-013
   4.7399999999999984         -8.9668248461685874E-013
   4.7999999999999972         -9.2172607665544943E-013
   4.8599999999999994         -9.4096035984593614E-013
   4.9199999999999982         -9.5389671827594708E-013
   4.9800000000000004         -9.6006947459818032E-013
   5.0399999999999991         -9.5904073728775986E-013
   5.0999999999999979         -9.5040489853878289E-013
   5.1600000000000001         -9.3379343477789721E-013
   5.2199999999999989         -9.0887896142773075E-013
   5.2799999999999976         -8.7538012408182248E-013
   5.3399999999999999         -8.3306537602513352E-013
   5.3999999999999986         -7.8175720258978677E-013
   5.4599999999999973         -7.2133574334235334E-013
   5.5199999999999996         -6.5174234556511441E-013
   5.5799999999999983         -5.7298253048857671E-013
   5.6400000000000006         -4.8512918260997732E-013
   5.6999999999999993         -3.8832466114771032E-013
   5.7599999999999980         -2.8278291116792882E-013
   5.8200000000000003         -1.6879122975049410E-013
   5.8799999999999990         -4.6711374859456701E-014
   5.9399999999999977          8.3019524104084094E-014
   6.0000000000000000          2.1988896416322198E-013
   6.0599999999999987          3.6330917637880751E-013
   6.1199999999999974          5.1261770873648481E-013
   6.1799999999999997          6.6707865981512688E-013
   6.2399999999999984          8.2588455261129904E-013
   6.2999999999999972          9.8815832404508253E-013
   6.3599999999999994          1.1529563163630026E-012
   6.4199999999999982          1.3192713990166970E-012
   6.4800000000000004          1.4860364652432560E-012
   6.5399999999999991          1.6521289366707277E-012
   6.5999999999999979          1.8163752387431877E-012
   6.6600000000000001          1.9775560736456942E-012
   6.7199999999999989          2.1344117701699957E-012
   6.7799999999999976          2.2856484941723971E-012
   6.8399999999999999          2.4299444338329704E-012
   6.8999999999999986          2.5659568722290196E-012
   6.9599999999999973          2.6923289500706673E-012
   7.0199999999999996          2.8076972291894794E-012
   7.0799999999999983          2.9106998175692435E-012
   7.1400000000000006          2.9999838924283212E-012
   7.1999999999999993          3.0742143835732478E-012
   7.2599999999999980          3.1320824394924918E-012
   7.3200000000000003          3.1723140122344501E-012
   7.3799999999999990          3.1936789879774262E-012
   7.4399999999999977          3.1950001670500395E-012
   7.5000000000000000          3.1751627168322784E-012
   7.5599999999999987          3.1331223295293195E-012
   7.6199999999999974          3.0679159177748700E-012
   7.6799999999999997          2.9786699686422565E-012
   7.7399999999999984          2.8646103206264756E-012
   7.7999999999999972          2.7250704821674749E-012
   7.8599999999999994          2.5595017178831944E-012
   7.9199999999999982          2.3674813080979712E-012
   7.9800000000000004          2.1487212264512719E-012
   8.0399999999999991          1.9030768793121033E-012
   8.1000000000000014          1.6305543166349196E-012
   8.1599999999999966          1.3313193502134254E-012
   8.2199999999999989          1.0057039825646850E-012
   8.2800000000000011          6.5421298805036612E-013
   8.3399999999999963          2.7753161348526132E-013
   8.3999999999999986         -1.2347075160159525E-013
   8.4600000000000009         -5.4773341266740056E-013
   8.5199999999999960         -9.9400156637319981E-013
   8.5799999999999983         -1.4608217018418602E-012
   8.6400000000000006         -1.9465394036734275E-012