  -24.000000000000000          0.0000000000000000     
  -23.940000000000001          0.0000000000000000     
  -23.879999999999999          0.0000000000000000     
  -23.820000000000000          0.0000000000000000     
  -23.760000000000002          0.0000000000000000     
  -23.699999999999999          0.0000000000000000     
  -23.640000000000001         -4.2169696986831596E-029
  -23.579999999999998         -5.3748677032116562E-028
  -23.520000000000000         -3.6753613931531053E-027
  -23.460000000000001         -1.7885062706644698E-026
  -23.399999999999999         -6.9362990949793091E-026
  -23.340000000000000         -2.2777626375345779E-025
  -23.280000000000001         -6.5738104375447505E-025
  -23.219999999999999         -1.7096304125436593E-024
  -23.160000000000000         -4.0781546476791477E-024
  -23.100000000000001         -9.0405801555043085E-024
  -23.039999999999999         -1.8812387023823416E-023
  -22.980000000000000         -3.7033824976962115E-023
  -22.920000000000002         -6.9399657202093941E-023
  -22.859999999999999         -1.2442114572502129E-022
  -22.800000000000001         -2.1427853159741625E-022
  -22.739999999999998         -3.5567976225239674E-022
  -22.680000000000000         -5.7058828132968477E-022
  -22.620000000000001         -8.8662144679496556E-022
  -22.559999999999999         -1.3368569915748603E-021
  -22.500000000000000         -1.9587263352147452E-021
  -22.440000000000001         -2.7916248199256523E-021
  -22.379999999999999         -3.8728584661362244E-021
  -22.320000000000000         -5.2315500856052812E-021
  -22.260000000000002         -6.8802206585392972E-021
  -22.199999999999999         -8.8039018836855687E-021
  -22.140000000000001         -1.0946826902489259E-020
  -22.079999999999998         -1.3197104088203626E-020
  -22.020000000000000         -1.5370122338835281E-020
  -21.960000000000001         -1.7191905870260143E-020
  -21.899999999999999         -1.8284219199754133E-020
  -21.840000000000000         -1.8153680543298019E-020
  -21.780000000000001         -1.6187751161566462E-020
  -21.719999999999999         -1.1660963085245293E-020
  -21.660000000000000         -3.7549544901324672E-021
  -21.600000000000001          8.4038355094129582E-021
  -21.539999999999999          2.5685262826973094E-020
  -21.480000000000000          4.8872259226553792E-020
  -21.420000000000002          7.8551202185420185E-020
  -21.359999999999999          1.1497528201129391E-019
  -21.300000000000001          1.5790231754196761E-019
  -21.240000000000002          2.0641084752824275E-019
  -21.180000000000000          2.5870171046832314E-019
  -21.120000000000001          3.1189554029724352E-019
  -21.059999999999999          3.6184046194069057E-019
  -21.000000000000000          4.0294809235252540E-019
  -20.940000000000001          4.2808009651790236E-019
  -20.879999999999999          4.2850986549105867E-019
  -20.820000000000000          3.9398723158476347E-019
  -20.760000000000002          3.1293453570468735E-019
  -20.699999999999999          1.7280317597827707E-019
  -20.640000000000001         -3.9384986609609843E-020
  -20.579999999999998         -3.3628920476239443E-019
  -20.520000000000000         -7.2928198921382315E-019
  -20.460000000000001         -1.2272592023618999E-018
  -20.399999999999999         -1.8352381751941087E-018
  -20.340000000000000         -2.5527729657933380E-018
  -20.280000000000001         -3.3722322006617806E-018
  -20.219999999999999         -4.2770090664892553E-018
  -20.160000000000000         -5.2397531753999693E-018
  -20.100000000000001         -6.2207390868716661E-018
  -20.039999999999999         -7.1665079011730699E-018
  -19.980000000000000         -8.0089400650826112E-018
  -19.920000000000002         -8.6649285778887130E-018
  -19.859999999999999         -9.0368336127383716E-018
  -19.800000000000001         -9.0139092048548370E-018
  -19.740000000000002         -8.4748686892910001E-018
  -19.680000000000000         -7.2917520093677097E-018
  -19.620000000000001         -5.3352126919100104E-018
  -19.560000000000002         -2.4813064560569131E-018
  -19.500000000000000          1.3802116105456389E-018
  -19.440000000000001          6.3361449641416120E-018
  -19.379999999999999          1.2438818529942732E-017
  -19.320000000000000          1.9694008095951573E-017
  -19.259999999999998          2.8048227279100901E-017
  -19.199999999999999          3.7375835720785267E-017
  -19.140000000000001          4.7466641729884240E-017
  -19.079999999999998          5.8014666071380866E-017
  -19.020000000000000          6.8608981377943322E-017
  -18.960000000000001          7.8727522930330479E-017
  -18.899999999999999          8.7734881540004639E-017
  -18.840000000000000          9.4885111140790126E-017
  -18.780000000000001          9.9330536014555446E-017
  -18.719999999999999          1.0013756067915440E-016
  -18.660000000000000          9.6310251717897264E-017
  -18.600000000000001          8.6822319478416879E-017
  -18.539999999999999          7.0657917548122232E-017
  -18.480000000000000          4.6861316582924085E-017
  -18.420000000000002          1.4595026245059319E-017
  -18.359999999999999         -2.6794339989024096E-017
  -18.300000000000001         -7.7703831742341512E-017
  -18.240000000000002         -1.3819737136134287E-016
  -18.180000000000000         -2.0792694917702100E-016
  -18.120000000000001         -2.8605469088210242E-016
  -18.060000000000002         -3.7117955658151592E-016
  -18.000000000000000         -4.6127269076326287E-016
  -17.940000000000001         -5.5362594173428420E-016
  -17.879999999999999         -6.4481863902700135E-016
  -17.820000000000000         -7.3070750848857943E-016
  -17.759999999999998         -8.0644488978228144E-016
  -17.699999999999999         -8.6653011359409839E-016
  -17.640000000000001         -9.0489867914657045E-016
  -17.579999999999998         -9.1505257245326500E-016
  -17.520000000000000         -8.9023520681133875E-016
  -17.460000000000001         -8.2365130900064314E-016
  -17.399999999999999         -7.0873318965522321E-016
  -17.340000000000000         -5.3945010885135995E-016
  -17.280000000000001         -3.1065795302633956E-016
  -17.219999999999999         -1.8481695079179100E-017
  -17.160000000000000          3.3927666131344155E-016
  -17.100000000000001          7.6271730957583027E-016
  -17.039999999999999          1.2494216064513662E-015
  -16.980000000000000          1.7940473517618472E-015
  -16.920000000000002          2.3879598137735626E-015
  -16.859999999999999          3.0189164530021656E-015
  -16.800000000000001          3.6708307742171735E-015
  -16.740000000000002          4.3236337903445063E-015
  -16.680000000000000          4.9532590998115227E-015
  -16.620000000000001          5.5317728982927778E-015
  -16.560000000000002          6.0276689899009212E-015
  -16.500000000000000          6.4063478303991061E-015
  -16.440000000000001          6.6307948035829973E-015
  -16.379999999999999          6.6624646066390713E-015
  -16.320000000000000          6.4623798268430007E-015
  -16.260000000000002          5.9924364185750623E-015
  -16.199999999999999          5.2169113689864577E-015
  -16.140000000000001          4.1041444283136123E-015
  -16.079999999999998          2.6283751689885908E-015
  -16.020000000000000          7.7168484664305869E-016
  -15.960000000000001         -1.4739923299932052E-015
  -15.900000000000000         -4.1048600806423570E-015
  -15.840000000000000         -7.1033136206389915E-015
  -15.780000000000001         -1.0436130422056767E-014
  -15.720000000000001         -1.4052895097428547E-014
  -15.660000000000000         -1.7884729970205373E-014
  -15.600000000000000         -2.1843435241005771E-014
  -15.540000000000001         -2.5821128886154493E-014
  -15.480000000000000         -2.9690476108643679E-014
  -15.420000000000000         -3.3305594365156901E-014
  -15.359999999999999         -3.6503710730484867E-014
  -15.300000000000001         -3.9107628287639046E-014
  -15.240000000000000         -4.0929057022018031E-014
  -15.180000000000000         -4.1772815841714112E-014
  -15.120000000000001         -4.1441933294481552E-014
  -15.060000000000000         -3.9743585200067767E-014
  -15.000000000000000         -3.6495847735627800E-014
  -14.940000000000000         -3.1535124602393711E-014
  -14.880000000000001         -2.4724175238199785E-014
  -14.820000000000000         -1.5960522321271028E-014
  -14.760000000000000         -5.1850885632602409E-015
  -14.700000000000001          7.6092096293415872E-015
  -14.640000000000001          2.2369158388075087E-014
  -14.580000000000000          3.8973547996138869E-014
  -14.520000000000000          5.7226350583062898E-014
  -14.460000000000001          7.6851193327067274E-014
  -14.400000000000000          9.7487396258376999E-014
  -14.340000000000000          1.1868790923670688E-013
  -14.280000000000001          1.3991961483488096E-013
  -14.220000000000001          1.6056603547235987E-013
  -14.160000000000000          1.7993304519262804E-013
  -14.100000000000000          1.9725756299632583E-013
  -14.040000000000001          2.1171951561422108E-013
  -13.980000000000000          2.2245706538322632E-013
  -13.920000000000000          2.2858529350947613E-013
  -13.860000000000001          2.2921798097772404E-013
  -13.800000000000001          2.2349259155970139E-013
  -13.740000000000000          2.1059788617040231E-013
  -13.680000000000000          1.8980404190810177E-013
  -13.620000000000001          1.6049433132581933E-013
  -13.560000000000000          1.2219821898669665E-013
  -13.500000000000000          7.4624592346044560E-014
  -13.440000000000001          1.7694644867719128E-014
  -13.380000000000001         -4.8426776111647321E-014
  -13.320000000000000         -1.2330231575581102E-013
  -13.260000000000000         -2.0619690164475012E-013
  -13.200000000000001         -2.9605735172606905E-013
  -13.140000000000001         -3.9149779800315494E-013
  -13.080000000000000         -4.9079220390425496E-013
  -13.020000000000000         -5.9187499262754099E-013
  -12.960000000000001         -6.9235083550480649E-013
  -12.900000000000000         -7.8951417114105434E-013
  -12.840000000000000         -8.8037973949527402E-013
  -12.780000000000001         -9.6172358596692607E-013
  -12.720000000000001         -1.0301361113523373E-012
  -12.660000000000000         -1.0820859866379619E-012
  -12.600000000000000         -1.1139949842151475E-012
  -12.540000000000001         -1.1223237446355479E-012
  -12.480000000000000         -1.1036661192615929E-012
  -12.420000000000000         -1.0548520925485962E-012
  -12.360000000000001         -9.7305647433176901E-013
  -12.300000000000001         -8.5591271295468891E-013
  -12.240000000000000         -7.0162742602138513E-013
  -12.180000000000000         -5.0909515325618734E-013
  -12.120000000000001         -2.7800888426997664E-013
  -12.060000000000000         -8.9637192075353064E-015
  -12.000000000000000          2.9644979228660162E-013
  -11.940000000000001          6.3556590374370287E-013
  -11.880000000000001          1.0045807539384062E-012
  -11.820000000000000          1.3985107079166652E-012
  -11.760000000000000          1.8111741091175787E-012
  -11.700000000000001          2.2351994451343836E-012
  -11.640000000000001          2.6620627626060565E-012
  -11.580000000000000          3.0821580728681907E-012
  -11.520000000000000          3.4848990381842412E-012
  -11.460000000000001          3.8588564638122610E-012
  -11.400000000000000          4.1919293411139787E-012
  -11.340000000000000          4.4715499838628483E-012
  -11.280000000000001          4.6849221294460746E-012
  -11.220000000000001          4.8192895080752080E-012
  -11.160000000000000          4.8622313982420622E-012
  -11.100000000000000          4.8019808070340145E-012
  -11.040000000000001          4.6277615578353849E-012
  -10.980000000000000          4.3301357777860666E-012
  -10.920000000000000          3.9013595191648834E-012
  -10.860000000000001          3.3357319855402923E-012
  -10.800000000000001          2.6299382918275257E-012
  -10.740000000000000          1.7833697588620635E-012
  -10.680000000000000          7.9841748881905854E-013
  -10.620000000000001         -3.1927085602931968E-013
  -10.560000000000000         -1.5605824879958799E-012
  -10.500000000000000         -2.9127847964966716E-012
  -10.440000000000001         -4.3594380870189330E-012
  -10.380000000000001         -5.8803736971372968E-012
  -10.320000000000000         -7.4517578370422813E-012
  -10.260000000000000         -9.0462362667229286E-012
  -10.200000000000001         -1.0633165781774972E-011
  -10.140000000000001         -1.2178941058424474E-011
  -10.080000000000000         -1.3647413034905441E-011
  -10.020000000000001         -1.5000394021131616E-011
  -9.9600000000000009         -1.6198260078296442E-011
  -9.9000000000000004         -1.7200624464594005E-011
  -9.8399999999999999         -1.7967100971127979E-011
  -9.7800000000000011         -1.8458121301266541E-011
  -9.7200000000000006         -1.8635815995841083E-011
  -9.6600000000000001         -1.8464929756914190E-011
  -9.6000000000000014         -1.7913765899123598E-011
  -9.5400000000000009         -1.6955136875038710E-011
  -9.4800000000000004         -1.5567307554922884E-011
  -9.4199999999999999         -1.3734900254327871E-011
  -9.3600000000000012         -1.1449754421761940E-011
  -9.3000000000000007         -8.7117088550758702E-012
  -9.2400000000000002         -5.5292961400411623E-012
  -9.1799999999999997         -1.9203135829556397E-012
  -9.1200000000000010          2.0877369062708005E-012
  -9.0600000000000005          6.4573579049835567E-012
  -9.0000000000000000          1.1140946547480287E-011
  -8.9400000000000013          1.6080865676015610E-011
  -8.8800000000000008          2.1209703766019764E-011
  -8.8200000000000003          2.6450749670910662E-011
  -8.7599999999999998          3.1718677680267449E-011
  -8.7000000000000011          3.6920432027615713E-011
  -8.6400000000000006          4.1956342274208316E-011
  -8.5800000000000001          4.6721419431500298E-011
  -8.5200000000000014          5.1106857648478833E-011
  -8.4600000000000009          5.5001694617042964E-011
  -8.4000000000000004          5.8294644277163103E-011
  -8.3399999999999999          6.0876047616202097E-011
  -8.2800000000000011          6.2639936180691496E-011
  -8.2200000000000006          6.3486153053970899E-011
  -8.1600000000000001          6.3322522234167545E-011
  -8.1000000000000014          6.2067011551836639E-011
  -8.0400000000000009          5.9649856252712029E-011
  -7.9800000000000004          5.6015609772516300E-011
  -7.9200000000000017          5.1125052647441628E-011
  -7.8599999999999994          4.4956967623972663E-011
  -7.8000000000000007          3.7509681817203746E-011
  -7.7400000000000020          2.8802405335773102E-011
  -7.6799999999999997          1.8876261771353841E-011
  -7.6200000000000010          7.7950304671083573E-012
  -7.5600000000000023         -4.3544598974485363E-012
  -7.5000000000000000         -1.7462265785165517E-011
  -7.4400000000000013         -3.1395687930552586E-011
  -7.3799999999999990         -4.5999970944822238E-011
  -7.3200000000000003         -6.1099403473520936E-011
  -7.2600000000000016         -7.6498855715498278E-011
  -7.1999999999999993         -9.1985625026521671E-011
  -7.1400000000000006         -1.0733170262210055E-010
  -7.0800000000000018         -1.2229636879350289E-010
  -7.0199999999999996         -1.3662910436319120E-010
  -6.9600000000000009         -1.5007278294801670E-010
  -6.9000000000000021         -1.6236711680311958E-010
  -6.8399999999999999         -1.7325226467274339E-010
  -6.7800000000000011         -1.8247261115044922E-010
  -6.7199999999999989         -1.8978064268032802E-010
  -6.6600000000000001         -1.9494081506237856E-010
  -6.6000000000000014         -1.9773347416937624E-010
  -6.5399999999999991         -1.9795858766430019E-010
  -6.4800000000000004         -1.9543942175161109E-010
  -6.4200000000000017         -1.9002596251781369E-010
  -6.3599999999999994         -1.8159812033499080E-010
  -6.3000000000000007         -1.7006861162451781E-010
  -6.2400000000000020         -1.5538546911611171E-010
  -6.1799999999999997         -1.3753419134870384E-010
  -6.1200000000000010         -1.1653944671499398E-010
  -6.0600000000000023         -9.2466335290814708E-011
  -6.0000000000000000         -6.5421122475291731E-011
  -5.9400000000000013         -3.5551574898783997E-011
  -5.8799999999999990         -3.0466464445196406E-012
  -5.8200000000000003          3.1864105544252795E-011
  -5.7600000000000016          6.8911816869715906E-011
  -5.6999999999999993          1.0778996186542647E-010
  -5.6400000000000006          1.4815640126350293E-010
  -5.5800000000000018          1.8963598052177489E-010
  -5.5199999999999996          2.3182342344961100E-010
  -5.4600000000000009          2.7428651944101316E-010
  -5.4000000000000021          3.1656962664357868E-010
  -5.3399999999999999          3.5819750756009521E-010
  -5.2800000000000011          3.9867931278509690E-010
  -5.2200000000000024          4.3751255966409012E-010
  -5.1600000000000001          4.7418751341484958E-010
  -5.1000000000000014          5.0819137171204961E-010
  -5.0399999999999991          5.3901251245270301E-010
  -4.9800000000000004          5.6614483467947248E-010
  -4.9200000000000017          5.8909195079762419E-010
  -4.8599999999999994          6.0737111956775736E-010
  -4.8000000000000007          6.2051748000001394E-010
  -4.7400000000000020          6.2808776702514413E-010
  -4.6799999999999997          6.2966400059262332E-010
  -4.6200000000000010          6.2485715435795874E-010
  -4.5600000000000023          6.1331042151281432E-010
  -4.5000000000000000          5.9470258010560846E-010
  -4.4400000000000013          5.6875110893650734E-010
  -4.3799999999999990          5.3521525098843686E-010
  -4.3200000000000003          4.9389880657382069E-010
  -4.2600000000000016          4.4465304659812662E-010
  -4.1999999999999993          3.8737951576706807E-010
  -4.1400000000000006          3.2203265274324875E-010
  -4.0800000000000018          2.4862247470675328E-010
  -4.0199999999999996          1.6721736306880447E-010
  -3.9600000000000009          7.7946719194999324E-011
  -3.9000000000000021         -1.8996561751043811E-011
  -3.8399999999999999         -1.2335326334193762E-010
  -3.7800000000000011         -2.3479532066068760E-010
  -3.7200000000000024         -3.5292312481008561E-010
  -3.6600000000000001         -4.7726311508941728E-010
  -3.6000000000000014         -6.0726545966074258E-010
  -3.5399999999999991         -7.4230182953740482E-010
  -3.4800000000000004         -8.8166311329415273E-010
  -3.4200000000000017         -1.0245580953850676E-009
  -3.3599999999999994         -1.1701120994518622E-009
  -3.3000000000000007         -1.3173657807028442E-009
  -3.2400000000000020         -1.4652753497837778E-009
  -3.1799999999999997         -1.6127122083227298E-009
  -3.1200000000000010         -1.7584646018829960E-009
  -3.0600000000000023         -1.9012393390314537E-009
  -3.0000000000000000         -2.0396645844533350E-009
  -2.9400000000000013         -2.1722934270372201E-009
  -2.8800000000000026         -2.2976091367294153E-009
  -2.8200000000000003         -2.4140315076731026E-009
  -2.7600000000000016         -2.5199237321088147E-009
  -2.6999999999999993         -2.6136014211969852E-009
  -2.6400000000000006         -2.6933427427421012E-009
  -2.5800000000000018         -2.7573996757550574E-009
  -2.5199999999999996         -2.8040110061910188E-009
  -2.4600000000000009         -2.8314161518396941E-009
  -2.4000000000000021         -2.8378712734266920E-009
  -2.3399999999999999         -2.8216656331506896E-009
  -2.2800000000000011         -2.7811399257648068E-009
  -2.2200000000000024         -2.7147053095507657E-009
  -2.1600000000000001         -2.6208633460375851E-009
  -2.1000000000000014         -2.4982272726414297E-009
  -2.0399999999999991         -2.3455436741397356E-009
  -1.9800000000000004         -2.1617148052621780E-009
  -1.9200000000000017         -1.9458205812462505E-009
  -1.8599999999999994         -1.6971418102471903E-009
  -1.8000000000000007         -1.4151828549858799E-009
  -1.7400000000000020         -1.0996936798278455E-009
  -1.6799999999999997         -7.5069126334788785E-010
  -1.6200000000000010         -3.6848104800068076E-010
  -1.5600000000000023          4.6323325409582824E-011
  -1.5000000000000000          4.9278159797728193E-010
  -1.4400000000000013          9.6960983011786392E-010
  -1.3800000000000026          1.4751646188316841E-009
  -1.3200000000000003          2.0074296858781226E-009
  -1.2600000000000016          2.5640040683847813E-009
  -1.1999999999999993          3.1420951703687475E-009
  -1.1400000000000006          3.7385084741984418E-009
  -1.0800000000000018          4.3496478121235498E-009
  -1.0199999999999996          4.9715119714671870E-009
 -0.96000000000000085          5.5996966146426310E-009
 -0.90000000000000213          6.2294004854586944E-009
 -0.83999999999999986          6.8554327998597083E-009
 -0.78000000000000114          7.4722238223345739E-009
 -0.72000000000000242          8.0738404116823814E-009
 -0.66000000000000014          8.6540037843152631E-009
 -0.60000000000000142          9.2061096667193477E-009
 -0.53999999999999915          9.7232542474750539E-009
 -0.48000000000000043          1.0198259718503678E-008
 -0.42000000000000171          1.0623707383783325E-008
 -0.35999999999999943          1.0991970826360414E-008
 -0.30000000000000071          1.1295252833219576E-008
 -0.24000000000000199          1.1525626554099556E-008
 -0.17999999999999972          1.1675079153155502E-008
 -0.12000000000000099          1.1735558213607766E-008
  -6.0000000000002274E-002     1.1699021540936755E-008
   0.0000000000000000          1.1557487739018590E-008
   5.9999999999998721E-002     1.1303094216305047E-008
  0.11999999999999744          1.0928153390606872E-008
  0.17999999999999972          1.0425211058632574E-008
  0.23999999999999844          9.7871147860406377E-009
  0.30000000000000071          9.0070727674458926E-009
  0.35999999999999943          8.0787248601386650E-009
  0.41999999999999815          6.9962099606129086E-009
  0.48000000000000043          5.7542425644013155E-009
  0.53999999999999915          4.3481788145973590E-009
  0.59999999999999787          2.7740992306058794E-009
  0.66000000000000014          1.0288775367770244E-009
  0.71999999999999886         -8.8973240182699085E-010
  0.77999999999999758         -2.9830268588458674E-009
  0.83999999999999986         -5.2512665221404560E-009
  0.89999999999999858         -7.6935944029850457E-009
  0.96000000000000085         -1.0307956739112276E-008
   1.0199999999999996         -1.3091019847766842E-008
   1.0799999999999983         -1.6038088757671980E-008
   1.1400000000000006         -1.9143026318010059E-008
   1.1999999999999993         -2.2398168527101860E-008
   1.2599999999999980         -2.5794242853069186E-008
   1.3200000000000003         -2.9320296392151140E-008
   1.3799999999999990         -3.2963607465225680E-008
   1.4399999999999977         -3.6709605976906715E-008
   1.5000000000000000         -4.0541800603183904E-008
   1.5599999999999987         -4.4441702730703950E-008
   1.6199999999999974         -4.8388753032942171E-008
   1.6799999999999997         -5.2360247289269616E-008
   1.7399999999999984         -5.6331263641225955E-008
   1.8000000000000007         -6.0274598616545104E-008
   1.8599999999999994         -6.4160690066520874E-008
   1.9199999999999982         -6.7957556888747304E-008
   1.9800000000000004         -7.1630724317394117E-008
   2.0399999999999991         -7.5143176047167377E-008
   2.0999999999999979         -7.8455274060136148E-008
   2.1600000000000001         -8.1524690005645591E-008
   2.2199999999999989         -8.4306359365190095E-008
   2.2799999999999976         -8.6752391333235491E-008
   2.3399999999999999         -8.8812017775568073E-008
   2.3999999999999986         -9.0431508743093376E-008
   2.4599999999999973         -9.1554102966691770E-008
   2.5199999999999996         -9.2119927733686221E-008
   2.5799999999999983         -9.2065911444548070E-008
   2.6400000000000006         -9.1325697470469951E-008
   2.6999999999999993         -8.9829541091417361E-008
   2.7599999999999980         -8.7504213886701332E-008
   2.8200000000000003         -8.4272895130978233E-008
   2.8799999999999990         -8.0054983058002489E-008
   2.9399999999999977         -7.4766007953392355E-008
   3.0000000000000000         -6.8317550194781962E-008
   3.0599999999999987         -6.0616903664576225E-008
   3.1199999999999974         -5.1567041225605251E-008
   3.1799999999999997         -4.1066294241569932E-008
   3.2399999999999984         -2.9008309152202473E-008
   3.3000000000000007         -1.5281626906133947E-008
   3.3599999999999994          2.3043882091676262E-010
   3.4199999999999982          1.7650267799884484E-008
   3.4800000000000004          3.7105963895024378E-008
   3.5399999999999991          5.8731885038394289E-008
   3.5999999999999979          8.2668960445678122E-008
   3.6600000000000001          1.0906501707128702E-007
   3.7199999999999989          1.3807517914103626E-007
   3.7799999999999976          1.6986235777422717E-007
   3.8399999999999999          2.0459768578855116E-007
   3.8999999999999986          2.4246095560515479E-007
   3.9599999999999973          2.8364155975837015E-007
   4.0199999999999996          3.2833828077896072E-007
   4.0799999999999983          3.7676045042082491E-007
   4.1400000000000006          4.2912859718364894E-007
   4.1999999999999993          4.8567479907201053E-007
   4.2599999999999980          5.4664363311939858E-007
   4.3200000000000003          6.1229277849165424E-007
   4.3799999999999990          6.8289427859207482E-007
   4.4399999999999977          7.5873426662238650E-007
   4.5000000000000000          8.4011538198185244E-007
   4.5599999999999987          9.2735635698121798E-007
   4.6199999999999974          1.0207937246028775E-006
   4.6799999999999997          1.1207826974396793E-006
   4.7399999999999984          1.2276979592537611E-006
   4.7999999999999972          1.3419352848345073E-006
   4.8599999999999994          1.4639131235227768E-006
   4.9199999999999982          1.5940725590763352E-006
   4.9800000000000004          1.7328792678255677E-006
   5.0399999999999991          1.8808251801676612E-006
   5.0999999999999979          2.0384298670420326E-006
   5.1600000000000001          2.2062416651465744E-006
   5.2199999999999989          2.3848401089804375E-006
   5.2799999999999976          2.5748366714563865E-006
   5.3399999999999999          2.7768770212018818E-006
   5.3999999999999986          2.9916425814319047E-006
   5.4599999999999973          3.2198533022178244E-006
   5.5199999999999996          3.4622682759525081E-006
   5.5799999999999983          3.7196888739388817E-006
   5.6400000000000006          3.9929612033802116E-006
   5.6999999999999993          4.2829760628006580E-006
   5.7599999999999980          4.5906758057007878E-006
   5.8200000000000003          4.9170513852131788E-006
   5.8799999999999990          5.2631519290014724E-006
   5.9399999999999977          5.6300792493055452E-006
   6.0000000000000000          6.0189960140934858E-006
   6.0599999999999987          6.4311282053024203E-006
   6.1199999999999974          6.8677676726122483E-006
   6.1799999999999997          7.3302745129200326E-006
   6.2399999999999984          7.8200797220856831E-006
   6.2999999999999972          8.3386935261672847E-006
   6.3599999999999994          8.8877012751140455E-006
   6.4199999999999982          9.4687751433961251E-006
   6.4800000000000004          1.0083669755352483E-005
   6.5399999999999991          1.0734232669029389E-005
   6.5999999999999979          1.1422404970065625E-005
   6.6600000000000001          1.2150231608153516E-005
   6.7199999999999989          1.2919858632218968E-005
   6.7799999999999976          1.3733539110410397E-005
   6.8399999999999999          1.4593639578593878E-005
   6.8999999999999986          1.5502646669987532E-005
   6.9599999999999973          1.6463166072360611E-005
   7.0199999999999996          1.7477936037556668E-005
   7.0799999999999983          1.8549826329017366E-005
   7.1400000000000006          1.9681847934666970E-005
   7.1999999999999993          2.0877157228351470E-005
   7.2599999999999980          2.2139057241018897E-005
   7.3200000000000003          2.3471017512457202E-005
   7.3799999999999990          2.4876662691157934E-005
   7.4399999999999977          2.6359791184949739E-005
   7.5000000000000000          2.7924383126620069E-005
   7.5599999999999987          2.9574596283991918E-005
   7.6199999999999974          3.1314785413888121E-005
   7.6799999999999997          3.3149504653186221E-005
   7.7399999999999984          3.5083513166531217E-005
   7.7999999999999972          3.7121782191534029E-005
   7.8599999999999994          3.9269512708598741E-005
   7.9199999999999982          4.1532141585978701E-005
   7.9800000000000004          4.3915335001833811E-005
   8.0399999999999991          4.6425002218038297E-005
   8.1000000000000014          4.9067336860784096E-005
   8.1599999999999966          5.1848779820392860E-005
   8.2199999999999989          5.4776055286611415E-005
   8.2800000000000011          5.7856181283386045E-005
   8.3399999999999963          6.1096478502283477E-005
   8.3999999999999986          6.4504565189499414E-005
   8.4600000000000009          6.8088372903784121E-005
   8.5199999999999960          7.1856193588125386E-005
   8.5799999999999983          7.5816631123120921E-005
   8.6400000000000006          7.9978667149024514E-005