  -24.000000000000000          0.0000000000000000     
  -23.940000000000001          0.0000000000000000     
  -23.879999999999999          0.0000000000000000     
  -23.820000000000000          0.0000000000000000     
  -23.760000000000002          0.0000000000000000     
  -23.699999999999999          0.0000000000000000     
  -23.640000000000001          0.0000000000000000     
  -23.579999999999998          0.0000000000000000     
  -23.520000000000000          0.0000000000000000     
  -23.460000000000001          0.0000000000000000     
  -23.399999999999999          0.0000000000000000     
  -23.340000000000000          0.0000000000000000     
  -23.280000000000001          0.0000000000000000     
  -23.219999999999999          0.0000000000000000     
  -23.160000000000000          0.0000000000000000     
  -23.100000000000001          0.0000000000000000     
  -23.039999999999999          0.0000000000000000     
  -22.980000000000000          0.0000000000000000     
  -22.920000000000002          0.0000000000000000     
  -22.859999999999999          0.0000000000000000     
  -22.800000000000001          0.0000000000000000     
  -22.739999999999998          0.0000000000000000     
  -22.680000000000000         -5.3184971292934220E-041
  -22.620000000000001         -2.3617431803097012E-040
  -22.559999999999999         -5.1621954079474010E-040
  -22.500000000000000         -9.7885066792953937E-040
  -22.440000000000001         -1.8495211359912736E-039
  -22.379999999999999         -3.5952188175612153E-039
  -22.320000000000000         -6.9217618650025406E-039
  -22.260000000000002         -1.3638445583250837E-038
  -22.199999999999999         -2.6051380846850537E-038
  -22.140000000000001         -5.1014775245107223E-038
  -22.079999999999998         -9.7146956760980828E-038
  -22.020000000000000         -1.8318267350005879E-037
  -21.960000000000001         -3.3515389424491654E-037
  -21.899999999999999         -5.9658170639603022E-037
  -21.840000000000000         -1.0337068610421996E-036
  -21.780000000000001         -1.7573853502943245E-036
  -21.719999999999999         -2.9170041550395388E-036
  -21.660000000000000         -4.7441846972744183E-036
  -21.600000000000001         -7.5734141447295518E-036
  -21.539999999999999         -1.1862650249069063E-035
  -21.480000000000000         -1.8264954738474530E-035
  -21.420000000000002         -2.7653176872321543E-035
  -21.359999999999999         -4.1166737100459134E-035
  -21.300000000000001         -6.0275638263063792E-035
  -21.240000000000002         -8.6799496531795171E-035
  -21.180000000000000         -1.2289926891357841E-034
  -21.120000000000001         -1.7109434852012317E-034
  -21.059999999999999         -2.3414013994405906E-034
  -21.000000000000000         -3.1476090126528897E-034
  -20.940000000000001         -4.1547105755835773E-034
  -20.879999999999999         -5.3797317594123544E-034
  -20.820000000000000         -6.8247823154586592E-034
  -20.760000000000002         -8.4666811397517532E-034
  -20.699999999999999         -1.0244440816193600E-033
  -20.640000000000001         -1.2042549744295456E-033
  -20.579999999999998         -1.3670826347995785E-033
  -20.520000000000000         -1.4840983017563028E-033
  -20.460000000000001         -1.5140547056903693E-033
  -20.399999999999999         -1.4005584194269186E-033
  -20.340000000000000         -1.0694297365129134E-033
  -20.280000000000001         -4.2650594756438968E-034
  -20.219999999999999          6.4367444836591996E-034
  -20.160000000000000          2.2777057146135667E-033
  -20.100000000000001          4.6309169493053500E-033
  -20.039999999999999          7.8718727134714324E-033
  -19.980000000000000          1.2172742390906788E-032
  -19.920000000000002          1.7694442959036388E-032
  -19.859999999999999          2.4565413760214656E-032
  -19.800000000000001          3.2852968082442725E-032
  -19.740000000000002          4.2526354497322084E-032
  -19.680000000000000          5.3411006585804410E-032
  -19.620000000000001          6.5134030144205661E-032
  -19.560000000000002          7.7061765342459946E-032
  -19.500000000000000          8.8231303300415336E-032
  -19.440000000000001          9.7279232305415859E-032
  -19.379999999999999          1.0237246727752343E-031
  -19.320000000000000          1.0114783191290282E-031
  -19.259999999999998          9.0669357654390265E-032
  -19.199999999999999          6.7414264609365661E-032
  -19.140000000000001          2.7300925894965754E-032
  -19.079999999999998         -3.4226060594002266E-032
  -19.020000000000000         -1.2203661844056487E-031
  -18.960000000000001         -2.4106429649017272E-031
  -18.899999999999999         -3.9594622601769487E-031
  -18.840000000000000         -5.9053762976627711E-031
  -18.780000000000001         -8.2728899529801703E-031
  -18.719999999999999         -1.1064781475181694E-030
  -18.660000000000000         -1.4252994091775002E-030
  -18.600000000000001         -1.7768216971944991E-030
  -18.539999999999999         -2.1488417639114479E-030
  -18.480000000000000         -2.5226780692836163E-030
  -18.420000000000002         -2.8719675597391326E-030
  -18.359999999999999         -3.1615556861388826E-030
  -18.300000000000001         -3.3465903059261136E-030
  -18.240000000000002         -3.3719572731098334E-030
  -18.180000000000000         -3.1722262863046995E-030
  -18.120000000000001         -2.6722870208297815E-030
  -18.060000000000002         -1.7888859445668827E-030
  -18.000000000000000         -4.3327217140159525E-031
  -17.940000000000001          1.4848302774984494E-030
  -17.879999999999999          4.0517280290766156E-030
  -17.820000000000000          7.3425803440417368E-030
  -17.759999999999998          1.1412427625059687E-029
  -17.699999999999999          1.6285397447301069E-029
  -17.640000000000001          2.1942175167008335E-029
  -17.579999999999998          2.8305952487478013E-029
  -17.520000000000000          3.5227243371586983E-029
  -17.460000000000001          4.2468137464831128E-029
  -17.399999999999999          4.9686821728180715E-029
  -17.340000000000000          5.6423380735413416E-029
  -17.280000000000001          6.2088197126308080E-029
  -17.219999999999999          6.5954473343638332E-029
  -17.160000000000000          6.7156672572802476E-029
  -17.100000000000001          6.4696807592785812E-029
  -17.039999999999999          5.7460711037917017E-029
  -16.980000000000000          4.4246469058888007E-029
  -16.920000000000002          2.3807009543266534E-029
  -16.859999999999999         -5.0911262979435283E-030
  -16.800000000000001         -4.3591425306237961E-029
  -16.740000000000002         -9.2652368043934749E-029
  -16.680000000000000         -1.5293366791621641E-028
  -16.620000000000001         -2.2466447651287755E-028
  -16.560000000000002         -3.0749579356109661E-028
  -16.500000000000000         -4.0034050368694334E-028
  -16.440000000000001         -5.0120644820458848E-028
  -16.379999999999999         -6.0702970217401028E-028
  -16.320000000000000         -7.1351736809070801E-028
  -16.260000000000002         -8.1501119164703979E-028
  -16.199999999999999         -9.0438531828073256E-028
  -16.140000000000001         -9.7299400369960726E-028
  -16.079999999999998         -1.0106852500912212E-027
  -16.020000000000000         -1.0059001713242425E-027
  -15.960000000000001         -9.4587440436825035E-028
  -15.900000000000000         -8.1696178978463629E-028
  -15.840000000000000         -6.0509627267344458E-028
  -15.780000000000001         -2.9640607954790983E-028
  -15.720000000000001          1.2200886516407869E-028
  -15.660000000000000          6.6113303927593243E-028
  -15.600000000000000          1.3289265527315490E-027
  -15.540000000000001          2.1290649339966537E-027
  -15.480000000000000          3.0595483659122949E-027
  -15.420000000000000          4.1112176446966617E-027
  -15.359999999999999          5.2662259296072265E-027
  -15.300000000000001          6.4965290637677637E-027
  -15.240000000000000          7.7624749836725959E-027
  -15.180000000000000          9.0115899276091497E-027
  -15.120000000000001          1.0177669239355823E-026
  -15.060000000000000          1.1180294552926702E-026
  -15.000000000000000          1.1924917473922258E-026
  -14.940000000000000          1.2303642338097599E-026
  -14.880000000000001          1.2196860389613719E-026
  -14.820000000000000          1.1475856876942733E-026
  -14.760000000000000          1.0006532375795663E-026
  -14.700000000000001          7.6543333756212852E-027
  -14.640000000000001          4.2904569874057587E-027
  -14.580000000000000         -2.0062078178982196E-028
  -14.520000000000000         -5.9123547308725345E-027
  -14.460000000000001         -1.2906113092782620E-026
  -14.400000000000000         -2.1200157684070058E-026
  -14.340000000000000         -3.0757831285139484E-026
  -14.280000000000001         -4.1475326437055934E-026
  -14.220000000000001         -5.3169473811809884E-026
  -14.160000000000000         -6.5566109562882085E-026
  -14.100000000000000         -7.8289678549002070E-026
  -14.040000000000001         -9.0854852232585203E-026
  -13.980000000000000         -1.0266097608620090E-025
  -13.920000000000000         -1.1299029417430223E-025
  -13.860000000000001         -1.2101089804946749E-025
  -13.800000000000001         -1.2578536829599961E-025
  -13.740000000000000         -1.2628610951914979E-025
  -13.680000000000000         -1.2141822615791859E-025
  -13.620000000000001         -1.1005062852106404E-025
  -13.560000000000000         -9.1056117240780342E-026
  -13.500000000000000         -6.3360553644567341E-026
  -13.440000000000001         -2.6001252327233647E-026
  -13.380000000000001          2.1805795697633972E-026
  -13.320000000000000          8.0590851885654635E-026
  -13.260000000000000          1.5054867560328834E-025
  -13.200000000000001          2.3145219145205383E-025
  -13.140000000000001          3.2256418855376396E-025
  -13.080000000000000          4.2254991954968591E-025
  -13.020000000000000          5.2939491446658776E-025
  -12.960000000000001          6.4033218160523890E-025
  -12.900000000000000          7.5178389288551049E-025
  -12.840000000000000          8.5932315052265339E-025
  -12.780000000000001          9.5766176649710029E-025
  -12.720000000000001          1.0406701036327344E-024
  -12.660000000000000          1.1014351121039460E-024
  -12.600000000000000          1.1323624781017420E-024
  -12.540000000000001          1.1253280989108019E-024
  -12.480000000000000          1.0718838347452949E-024
  -12.420000000000000          9.6351993943442048E-025
  -12.360000000000001          7.9198700451091335E-025
  -12.300000000000001          5.4967640010191368E-025
  -12.240000000000000          2.3005705637271772E-025
  -12.180000000000000         -1.7183695712655861E-025
  -12.120000000000001         -6.5887584997257436E-025
  -12.060000000000000         -1.2312728788364826E-024
  -12.000000000000000         -1.8860067931065029E-024
  -11.940000000000001         -2.6162480337274135E-024
  -11.880000000000001         -3.4108086880388347E-024
  -11.820000000000000         -4.2536463247909825E-024
  -11.760000000000000         -5.1234458903904239E-024
  -11.700000000000001         -5.9933166296826720E-024
  -11.640000000000001         -6.8306340442129989E-024
  -11.580000000000000         -7.5970640162065672E-024
  -11.520000000000000         -8.2488043539059479E-024
  -11.460000000000001         -8.7370798547634455E-024
  -11.400000000000000         -9.0089176807007146E-024
  -11.340000000000000         -9.0082346146487393E-024
  -11.280000000000001         -8.6772550562475490E-024
  -11.220000000000001         -7.9582789181565739E-024
  -11.160000000000000         -6.7957880740471969E-024
  -11.100000000000000         -5.1389025802242995E-024
  -11.040000000000001         -2.9441455199266442E-024
  -10.980000000000000         -1.7848922526300381E-025
  -10.920000000000000          3.1773760887792923E-024
  -10.860000000000001          7.1256268667591862E-024
  -10.800000000000001          1.1647835390854294E-023
  -10.740000000000000          1.6701554482795709E-023
  -10.680000000000000          2.2217087232560378E-023
  -10.620000000000001          2.8094607849144910E-023
  -10.560000000000000          3.4201766616564590E-023
  -10.500000000000000          4.0371982866376156E-023
  -10.440000000000001          4.6403605597805573E-023
  -10.380000000000001          5.2060122149079630E-023
  -10.320000000000000          5.7071610259158369E-023
  -10.260000000000000          6.1137609292204628E-023
  -10.200000000000001          6.3931585296505103E-023
  -10.140000000000001          6.5107098586042113E-023
  -10.080000000000000          6.4305819390714491E-023
  -10.020000000000001          6.1167408461422056E-023
  -9.9600000000000009          5.5341299500267859E-023
  -9.9000000000000004          4.6500314842278396E-023
  -9.8399999999999999          3.4355991070497442E-023
  -9.7800000000000011          1.8675416926972455E-023
  -9.7200000000000006         -7.0072407320924837E-025
  -9.6600000000000001         -2.3839287731682655E-023
  -9.6000000000000014         -5.0695433135822412E-023
  -9.5400000000000009         -8.1093611331356448E-023
  -9.4800000000000004         -1.1470946413601667E-022
  -9.4199999999999999         -1.5105327974237313E-022
  -9.3600000000000012         -1.8945602104150158E-022
  -9.3000000000000007         -2.2905850900950957E-022
  -9.2400000000000002         -2.6880506443234435E-022
  -9.1799999999999997         -3.0744219454347657E-022
  -9.1200000000000010         -3.4352347867731414E-022
  -9.0600000000000005         -3.7542145955478700E-022
  -9.0000000000000000         -4.0134746872551932E-022
  -8.9400000000000013         -4.1937986768305610E-022
  -8.8800000000000008         -4.2750148483216026E-022
  -8.8200000000000003         -4.2364653208919136E-022
  -8.7599999999999998         -4.0575712866964071E-022
  -8.7000000000000011         -3.7184916916407491E-022
  -8.6400000000000006         -3.2008710364372746E-022
  -8.5800000000000001         -2.4886698949195848E-022
  -8.5200000000000014         -1.5690618994458539E-022
  -8.4600000000000009         -4.3338390019302621E-023
  -8.4000000000000004          9.2188329905167560E-023
  -8.3399999999999999          2.4941262613301627E-022
  -8.2800000000000011          4.2736357923764447E-022
  -8.2200000000000006          6.2426977121579206E-022
  -8.1600000000000001          8.3747764330998630E-022
  -8.1000000000000014          1.0633836101359070E-021
  -8.0400000000000009          1.2973828926311038E-021
  -7.9800000000000004          1.5338408527909822E-021
  -7.9200000000000017          1.7660901313095439E-021
  -7.8599999999999994          1.9864586935946493E-021
  -7.8000000000000007          2.1863320652910397E-021
  -7.7400000000000020          2.3562533773954252E-021
  -7.6799999999999997          2.4860652565506792E-021
  -7.6200000000000010          2.5650955603106326E-021
  -7.5600000000000023          2.5823855454099863E-021
  -7.5000000000000000          2.5269672588323471E-021
  -7.4400000000000013          2.3881803824027836E-021
  -7.3799999999999990          2.1560345955327786E-021
  -7.3200000000000003          1.8216070762350338E-021
  -7.2600000000000016          1.3774726304676628E-021
  -7.1999999999999993          8.1815864972793797E-022
  -7.1400000000000006          1.4061315593321370E-022
  -7.0800000000000018         -6.5532092401588352E-022
  -7.0199999999999996         -1.5664433661447939E-021
  -6.9600000000000009         -2.5857564064596712E-021
  -6.9000000000000021         -3.7020659692780836E-021
  -6.8399999999999999         -4.8996391515443063E-021
  -6.7800000000000011         -6.1579373120481391E-021
  -6.7199999999999989         -7.4514474853029383E-021
  -6.6600000000000001         -8.7496207489563518E-021
  -6.6000000000000014         -1.0016948882822264E-020
  -6.5399999999999991         -1.1213187413231625E-020
  -6.4800000000000004         -1.2293744374814836E-020
  -6.4200000000000017         -1.3210248790972801E-020
  -6.3599999999999994         -1.3911308149627000E-020
  -6.3000000000000007         -1.4343463927437835E-020
  -6.2400000000000020         -1.4452340166501231E-020
  -6.1799999999999997         -1.4183993569147609E-020
  -6.1200000000000010         -1.3486450598929291E-020
  -6.0600000000000023         -1.2311413516113296E-020
  -6.0000000000000000         -1.0616120310267208E-020
  -5.9400000000000013         -8.3653249495390350E-021
  -5.8799999999999990         -5.5333636242332310E-021
  -5.8200000000000003         -2.1062699381840745E-021
  -5.7600000000000016          1.9161288228933548E-021
  -5.6999999999999993          6.5181705274621338E-021
  -5.6400000000000006          1.1666449564457434E-020
  -5.5800000000000018          1.7308101272950069E-020
  -5.5199999999999996          2.3369366730055321E-020
  -5.4600000000000009          2.9754483476236452E-020
  -5.4000000000000021          3.6345024669167415E-020
  -5.3399999999999999          4.2999706729615354E-020
  -5.2800000000000011          4.9554789029707864E-020
  -5.2200000000000024          5.5825115149468790E-020
  -5.1600000000000001          6.1605828951823169E-020
  -5.1000000000000014          6.6674880155130350E-020
  -5.0399999999999991          7.0796277132757643E-020
  -4.9800000000000004          7.3724179623785863E-020
  -4.9200000000000017          7.5207803912677919E-020
  -4.8599999999999994          7.4997111076290103E-020
  -4.8000000000000007          7.2849268572259052E-020
  -4.7400000000000020          6.8535826745093052E-020
  -4.6799999999999997          6.1850471491952547E-020
  -4.6200000000000010          5.2617314843163370E-020
  -4.5600000000000023          4.0699507042988326E-020
  -4.5000000000000000          2.6008036999079255E-020
  -4.4400000000000013          8.5105537039651014E-021
  -4.3799999999999990         -1.1760094405982079E-020
  -4.3200000000000003         -3.4697758749863461E-020
  -4.2600000000000016         -6.0115637847223747E-020
  -4.1999999999999993         -8.7739935364545791E-020
  -4.1400000000000006         -1.1720484734334040E-019
  -4.0800000000000018         -1.4804909185613873E-019
  -4.0199999999999996         -1.7971431919561454E-019
  -3.9600000000000009         -2.1154575897043257E-019
  -3.9000000000000021         -2.4279517923138664E-019
  -3.8399999999999999         -2.7262658119876950E-019
  -3.7800000000000011         -3.0012463960251462E-019
  -3.7200000000000024         -3.2430630221851494E-019
  -3.6600000000000001         -3.4413525331558194E-019
  -3.6000000000000014         -3.5853984139454243E-019
  -3.5399999999999991         -3.6643376143204828E-019
  -3.4800000000000004         -3.6673998202717194E-019
  -3.4200000000000017         -3.5841740802507463E-019
  -3.3599999999999994         -3.4048998983101951E-019
  -3.3000000000000007         -3.1207811889059064E-019
  -3.2400000000000020         -2.7243149143817465E-019
  -3.1799999999999997         -2.2096335398341417E-019
  -3.1200000000000010         -1.5728484520733526E-019
  -3.0600000000000023         -8.1239363097162682E-020
  -3.0000000000000000          7.0644638989631859E-021
  -2.9400000000000013          1.0722153535011036E-019
  -2.8800000000000026          2.1850245866200638E-019
  -2.8200000000000003          3.3982937166568994E-019
  -2.7600000000000016          4.6975674082091670E-019
  -2.6999999999999993          6.0645850521826255E-019
  -2.6400000000000006          7.4772201344380233E-019
  -2.5800000000000018          8.9095009339256644E-019
  -2.5199999999999996          1.0331718091036241E-018
  -2.4600000000000009          1.1710632547321217E-018
  -2.4000000000000021          1.3009784424662633E-018
  -2.3399999999999999          1.4189911611803647E-018
  -2.2800000000000011          1.5209479089506887E-018
  -2.2200000000000024          1.6025322087548950E-018
  -2.1600000000000001          1.6593400404325486E-018
  -2.1000000000000014          1.6869664783954619E-018
  -2.0399999999999991          1.6811014930882040E-018
  -1.9800000000000004          1.6376359445285216E-018
  -1.9200000000000017          1.5527747160116216E-018
  -1.8599999999999994          1.4231568003608324E-018
  -1.8000000000000007          1.2459792963873097E-018
  -1.7400000000000020          1.0191239349839784E-018
  -1.6799999999999997          7.4128354857354924E-019
  -1.6200000000000010          4.1208513311133192E-019
  -1.5600000000000023          3.2207665868975716E-020
  -1.5000000000000000         -3.9650997610360292E-019
  -1.4400000000000013         -8.7097196273538953E-019
  -1.3800000000000026         -1.3867459923032172E-018
  -1.3200000000000003         -1.9380011629129009E-018
  -1.2600000000000016         -2.5174691665583027E-018
  -1.1999999999999993         -3.1164307249909267E-018
  -1.1400000000000006         -3.7247315836570026E-018
  -1.0800000000000018         -4.3308286865319258E-018
  -1.0199999999999996         -4.9218707383150394E-018
 -0.96000000000000085         -5.4838156269175363E-018
 -0.90000000000000213         -6.0015827645829367E-018
 -0.83999999999999986         -6.4592457756668259E-018
 -0.78000000000000114         -6.8402619332609828E-018
 -0.72000000000000242         -7.1277392498700374E-018
 -0.66000000000000014         -7.3047399692491433E-018
 -0.60000000000000142         -7.3546167853318597E-018
 -0.53999999999999915         -7.2613816937843157E-018
 -0.48000000000000043         -7.0100970553459442E-018
 -0.42000000000000171         -6.5872911864351001E-018
 -0.35999999999999943         -5.9813882317715364E-018
 -0.30000000000000071         -5.1831449384529768E-018
 -0.24000000000000199         -4.1860890168970836E-018
 -0.17999999999999972         -2.9869470707316624E-018
 -0.12000000000000099         -1.5860576806342756E-018
  -6.0000000000002274E-002     1.2242968344088489E-020
   0.0000000000000000          1.7992767337789424E-018
   5.9999999999998721E-002     3.7617209962876540E-018
  0.11999999999999744          5.8813710313660599E-018
  0.17999999999999972          8.1349669589276975E-018
  0.23999999999999844          1.0494100746622917E-017
  0.30000000000000071          1.2925211904799418E-017
  0.35999999999999943          1.5389682003614225E-017
  0.41999999999999815          1.7844034615929372E-017
  0.48000000000000043          2.0240242118884040E-017
  0.53999999999999915          2.2526157666725655E-017
  0.59999999999999787          2.4646061435588579E-017
  0.66000000000000014          2.6541328533864281E-017
  0.71999999999999886          2.8151226061157897E-017
  0.77999999999999758          2.9413820136157401E-017
  0.83999999999999986          3.0266998323453228E-017
  0.89999999999999858          3.0649599922951894E-017
  0.96000000000000085          3.0502639247985317E-017
   1.0199999999999996          2.9770611603008613E-017
   1.0799999999999983          2.8402867693542405E-017
   1.1400000000000006          2.6355029474979738E-017
   1.1999999999999993          2.3590437592850244E-017
   1.2599999999999980          2.0081598548117595E-017
   1.3200000000000003          1.5811617658138816E-017
   1.3799999999999990          1.0775579216245543E-017
   1.4399999999999977          4.9818336535474709E-018
   1.5000000000000000         -1.5467896787969665E-018
   1.5599999999999987         -8.7719534843184802E-018
   1.6199999999999974         -1.6638911872602993E-017
   1.6799999999999997         -2.5075841432991891E-017
   1.7399999999999984         -3.3993387592847079E-017
   1.8000000000000007         -4.3284476951401813E-017
   1.8599999999999994         -5.2824426258498989E-017
   1.9199999999999982         -6.2471353109437966E-017
   1.9800000000000004         -7.2066927505343933E-017
   2.0399999999999991         -8.1437481579538368E-017
   2.0999999999999979         -9.0395466942517633E-017
   2.1600000000000001         -9.8741322005497610E-017
   2.2199999999999989         -1.0626568218400499E-016
   2.2799999999999976         -1.1275199506171497E-016
   2.3399999999999999         -1.1797946284208861E-016
   2.3999999999999986         -1.2172641029348721E-016
   2.4599999999999973         -1.2377388823322740E-016
   2.5199999999999996         -1.2390964439192022E-016
   2.5799999999999983         -1.2193233183449837E-016
   2.6400000000000006         -1.1765592856373038E-016
   2.6999999999999993         -1.1091431490678301E-016
   2.7599999999999980         -1.0156597315518694E-016
   2.8200000000000003         -8.9498703446164564E-017
   2.8799999999999990         -7.4634325935932005E-017
   2.9399999999999977         -5.6933230420290896E-017
   3.0000000000000000         -3.6398757693885493E-017
   3.0599999999999987         -1.3081318814675715E-017
   3.1199999999999974          1.2917970160104354E-017
   3.1799999999999997          4.1443962771308386E-017
   3.2399999999999984          7.2284848854798202E-017
   3.3000000000000007          1.0517015047091309E-016
   3.3599999999999994          1.3976939045438212E-016
   3.4199999999999982          1.7569172124546409E-016
   3.4800000000000004          2.1248629997359791E-016
   3.5399999999999991          2.4964384533652663E-016
   3.5999999999999979          2.8659909815455179E-016
   3.6600000000000001          3.2273445659672631E-016
   3.7199999999999989          3.5738474446322742E-016
   3.7799999999999976          3.8984316684333686E-016
   3.8399999999999999          4.1936850964575937E-016
   3.8999999999999986          4.4519334861268094E-016
   3.9599999999999973          4.6653378829215126E-016
   4.0199999999999996          4.8259991655206254E-016
   4.0799999999999983          4.9260760330821045E-016
   4.1400000000000006          4.9579123740566583E-016
   4.1999999999999993          4.9141725681510121E-016
   4.2599999999999980          4.7879858982333723E-016
   4.3200000000000003          4.5730956532202003E-016
   4.3799999999999990          4.2640126093558401E-016
   4.4399999999999977          3.8561734569985691E-016
   4.5000000000000000          3.3460954987799444E-016
   4.5599999999999987          2.7315329800293039E-016
   4.6199999999999974          2.0116271238802978E-016
   4.6799999999999997          1.1870500451907156E-016
   4.7399999999999984          2.6013723973788028E-017
   4.7999999999999972         -7.6499032967758365E-017
   4.8599999999999994         -1.8823219055233714E-016
   4.9199999999999982         -3.0838697110636926E-016
   4.9800000000000004         -4.3596035028720732E-016
   5.0399999999999991         -5.6974104995108133E-016
   5.0999999999999979         -7.0830817438469283E-016
   5.1600000000000001         -8.5003276367382663E-016
   5.2199999999999989         -9.9308261691166426E-016
   5.2799999999999976         -1.1354307436296575E-015
   5.3399999999999999         -1.2748670132709858E-015
   5.3999999999999986         -1.4090139195547291E-015
   5.4599999999999973         -1.5353461270525444E-015
   5.5199999999999996         -1.6512138157460441E-015
   5.5799999999999983         -1.7538704753336538E-015
   5.6400000000000006         -1.8405037389144954E-015
   5.6999999999999993         -1.9082706016502178E-015
   5.7599999999999980         -1.9543363449418373E-015
   5.8200000000000003         -1.9759163141972676E-015
   5.8799999999999990         -1.9703211094731472E-015
   5.9399999999999977         -1.9350047370139091E-015
   6.0000000000000000         -1.8676140308948890E-015
   6.0599999999999987         -1.7660410022398153E-015
   6.1199999999999974         -1.6284752602915928E-015
   6.1799999999999997         -1.4534576709324854E-015
   6.2399999999999984         -1.2399329976666846E-015
   6.2999999999999972         -9.8730245489018902E-016
   6.3599999999999994         -6.9547332934936846E-016
   6.4199999999999982         -3.6490632063215814E-016
   6.4800000000000004          3.3400331896925748E-018
   6.5399999999999991          4.0757137933133959E-016
   6.5999999999999979          8.4542306552993554E-016
   6.6600000000000001          1.3138337173443307E-015
   6.7199999999999989          1.8090255941880027E-015
   6.7799999999999976          2.3264929742762074E-015
   6.8399999999999999          2.8610007492112791E-015
   6.8999999999999986          3.4065918243635664E-015
   6.9599999999999973          3.9566075276445567E-015
   7.0199999999999996          4.5037161809494616E-015
   7.0799999999999983          5.0399559051880517E-015
   7.1400000000000006          5.5567900000393674E-015
   7.1999999999999993          6.0451744448739451E-015
   7.2599999999999980          6.4956372051484223E-015
   7.3200000000000003          6.8983722370766208E-015
   7.3799999999999990          7.2433448326551778E-015
   7.4399999999999977          7.5204089292190652E-015
   7.5000000000000000          7.7194379724562725E-015
   7.5599999999999987          7.8304626554996544E-015
   7.6199999999999974          7.8438231265956447E-015
   7.6799999999999997          7.7503258096977194E-015
   7.7399999999999984          7.5414085883940881E-015
   7.7999999999999972          7.2093118013233371E-015
   7.8599999999999994          6.7472531638873744E-015
   7.9199999999999982          6.1495997471750864E-015
   7.9800000000000004          5.4120462195187822E-015
   8.0399999999999991          4.5317839542909084E-015
   8.1000000000000014          3.5076656319756805E-015
   8.1599999999999966          2.3403634912555331E-015
   8.2199999999999989          1.0325129206162977E-015
   8.2800000000000011         -4.1115266416442581E-016
   8.3399999999999963         -1.9836937210657304E-015
   8.3999999999999986         -3.6758643788691771E-015
   8.4600000000000009         -5.4760437126123806E-015
   8.5199999999999960         -7.3701866136715391E-015
   8.5799999999999983         -9.3418076247895539E-015
   8.6400000000000006         -1.1371993262368502E-014