  -24.000000000000000          0.0000000000000000     
  -23.940000000000001          0.0000000000000000     
  -23.879999999999999          0.0000000000000000     
  -23.820000000000000          0.0000000000000000     
  -23.760000000000002          0.0000000000000000     
  -23.699999999999999          0.0000000000000000     
  -23.640000000000001          0.0000000000000000     
  -23.579999999999998          2.3320351972695346E-034
  -23.520000000000000          3.4364174110053532E-033
  -23.460000000000001          2.6929793692085268E-032
  -23.399999999999999          1.4905197797452258E-031
  -23.340000000000000          6.5320541266769662E-031
  -23.280000000000001          2.4100904834217622E-030
  -23.219999999999999          7.7765616551670524E-030
  -23.160000000000000          2.2512952456129479E-029
  -23.100000000000001          5.9553151048522205E-029
  -23.039999999999999          1.4591857249961449E-028
  -22.980000000000000          3.3464430349284514E-028
  -22.920000000000002          7.2425014898737592E-028
  -22.859999999999999          1.4889643766878478E-027
  -22.800000000000001          2.9234633154553485E-027
  -22.739999999999998          5.5061184806352334E-027
  -22.680000000000000          9.9844205207889808E-027
  -22.620000000000001          1.7484959055562071E-026
  -22.559999999999999          2.9647874897037017E-026
  -22.500000000000000          4.8781471868115878E-026
  -22.440000000000001          7.8026530864437299E-026
  -22.379999999999999          1.2151134932918556E-025
  -22.320000000000000          1.8446774144249792E-025
  -22.260000000000002          2.7326515117344273E-025
  -22.199999999999999          3.9530547306829845E-025
  -22.140000000000001          5.5870562609043916E-025
  -22.079999999999998          7.7167872685184248E-025
  -22.020000000000000          1.0415149352332556E-024
  -21.960000000000001          1.3730536660293029E-024
  -21.899999999999999          1.7665391807989416E-024
  -21.840000000000000          2.2147664363346238E-024
  -21.780000000000001          2.6994490968083121E-024
  -21.719999999999999          3.1867843868451140E-024
  -21.660000000000000          3.6222711753128140E-024
  -21.600000000000001          3.9249105284611337E-024
  -21.539999999999999          3.9810423005100565E-024
  -21.480000000000000          3.6382369475452914E-024
  -21.420000000000002          2.6997775887327026E-024
  -21.359999999999999          9.2050830692937669E-025
  -21.300000000000001         -1.9950410048238468E-024
  -21.240000000000002         -6.3911288484107802E-024
  -21.180000000000000         -1.2654580357422031E-023
  -21.120000000000001         -2.1202480623705326E-023
  -21.059999999999999         -3.2462335455699619E-023
  -21.000000000000000         -4.6843200732215288E-023
  -20.940000000000001         -6.4696572933128805E-023
  -20.879999999999999         -8.6266071455854497E-023
  -20.820000000000000         -1.1162518768242177E-022
  -20.760000000000002         -1.4060347045531637E-022
  -20.699999999999999         -1.7270182984535657E-022
  -20.640000000000001         -2.0699928710769162E-022
  -20.579999999999998         -2.4205406857126055E-022
  -20.520000000000000         -2.7580411759358228E-022
  -20.460000000000001         -3.0547308557026250E-022
  -20.399999999999999         -3.2748982684315566E-022
  -20.340000000000000         -3.3743112726548311E-022
  -20.280000000000001         -3.2999868560661252E-022
  -20.219999999999999         -2.9904316016723134E-022
  -20.160000000000000         -2.3764884005545938E-022
  -20.100000000000001         -1.3829283898337772E-022
  -20.039999999999999          6.9071626106495812E-024
  -19.980000000000000          2.0584306238837079E-022
  -19.920000000000002          4.6595440716481618E-022
  -19.859999999999999          7.9364639782494488E-022
  -19.800000000000001          1.1935834937026465E-021
  -19.740000000000002          1.6678626923225591E-021
  -19.680000000000000          2.2150751803186701E-021
  -19.620000000000001          2.8292737966065559E-021
  -19.560000000000002          3.4988774833232696E-021
  -19.500000000000000          4.2055492767112512E-021
  -19.440000000000001          4.9230985499091943E-021
  -19.379999999999999          5.6164721426122340E-021
  -19.320000000000000          6.2409093769291048E-021
  -19.259999999999998          6.7413494396938230E-021
  -19.199999999999999          7.0521790802487821E-021
  -19.140000000000001          7.0974388135264617E-021
  -19.079999999999998          6.7915869117120872E-021
  -19.020000000000000          6.0409335002294090E-021
  -18.960000000000001          4.7458493746393458E-021
  -18.899999999999999          2.8038578972491453E-021
  -18.840000000000000          1.1367209004910288E-022
  -18.780000000000001         -3.4197552138153973E-021
  -18.719999999999999         -7.8791460678439632E-021
  -18.660000000000000         -1.3327778931137801E-020
  -18.600000000000001         -1.9801417930708407E-020
  -18.539999999999999         -2.7299376993300986E-020
  -18.480000000000000         -3.5774947545006375E-020
  -18.420000000000002         -4.5125351073894717E-020
  -18.359999999999999         -5.5181614935077068E-020
  -18.300000000000001         -6.5698725544499447E-020
  -18.240000000000002         -7.6346494316206568E-020
  -18.180000000000000         -8.6701749022814444E-020
  -18.120000000000001         -9.6242378064072602E-020
  -18.060000000000002         -1.0434388832182022E-019
  -18.000000000000000         -1.1027923008234810E-019
  -17.940000000000001         -1.1322251946097115E-019
  -17.879999999999999         -1.1225743513259997E-019
  -17.820000000000000         -1.0639092335780601E-019
  -17.759999999999998         -9.4572876073820092E-020
  -17.699999999999999         -7.5722306010652693E-020
  -17.640000000000001         -4.8760422176834531E-020
  -17.579999999999998         -1.2650783527822806E-020
  -17.520000000000000          3.3553283391943739E-020
  -17.460000000000001          9.0654456372073017E-020
  -17.399999999999999          1.5925048706344614E-019
  -17.340000000000000          2.3966793979250810E-019
  -17.280000000000001          3.3189118246659351E-019
  -17.219999999999999          4.3548848102056586E-019
  -17.160000000000000          5.4953693087003770E-019
  -17.100000000000001          6.7254860587270238E-019
  -17.039999999999999          8.0240044952945323E-019
  -16.980000000000000          9.3627120025297874E-019
  -16.920000000000002          1.0705877012581772E-018
  -16.859999999999999          1.2009859427999079E-018
  -16.800000000000001          1.3222883862433097E-018
  -16.740000000000002          1.4285031574106260E-018
  -16.680000000000000          1.5128479056328532E-018
  -16.620000000000001          1.5678030125437608E-018
  -16.560000000000002          1.5851963835982602E-018
  -16.500000000000000          1.5563241792780217E-018
  -16.440000000000001          1.4721091725643082E-018
  -16.379999999999999          1.3232993888741426E-018
  -16.320000000000000          1.1007070388319503E-018
  -16.260000000000002          7.9548955813277928E-019
  -16.199999999999999          3.9946861822476660E-019
  -16.140000000000001         -9.4511425540699637E-020
  -16.079999999999998         -6.9219212978251031E-019
  -16.020000000000000         -1.3974822336203497E-018
  -15.960000000000001         -2.2120153873819206E-018
  -15.900000000000000         -3.1346958208483145E-018
  -15.840000000000000         -4.1612433026553791E-018
  -15.780000000000001         -5.2837403396623641E-018
  -15.720000000000001         -6.4902108628853917E-018
  -15.660000000000000         -7.7642251761603801E-018
  -15.600000000000000         -9.0845644515264909E-018
  -15.540000000000001         -1.0424948558778921E-017
  -15.480000000000000         -1.1753853981924238E-017
  -15.420000000000000         -1.3034429618395626E-017
  -15.359999999999999         -1.4224537122025882E-017
  -15.300000000000001         -1.5276926716741860E-017
  -15.240000000000000         -1.6139564904932890E-017
  -15.180000000000000         -1.6756131157907445E-017
  -15.120000000000001         -1.7066691534331728E-017
  -15.060000000000000         -1.7008563930576736E-017
  -15.000000000000000         -1.6517376066885791E-017
  -14.940000000000000         -1.5528325341169694E-017
  -14.880000000000001         -1.3977631776709157E-017
  -14.820000000000000         -1.1804190536977091E-017
  -14.760000000000000         -8.9513952466077960E-018
  -14.700000000000001         -5.3691388389391561E-018
  -14.640000000000001         -1.0159531472074720E-018
  -14.580000000000000          4.1387482662400785E-018
  -14.520000000000000          1.0112316024291206E-017
  -14.460000000000001          1.6906476446734634E-017
  -14.400000000000000          2.4504958133995216E-017
  -14.340000000000000          3.2871136720136235E-017
  -14.280000000000001          4.1945816222915703E-017
  -14.220000000000001          5.1645155056963753E-017
  -14.160000000000000          6.1858815628002417E-017
  -14.100000000000000          7.2448441421567345E-017
  -14.040000000000001          8.3246432192323944E-017
  -13.980000000000000          9.4055223272873348E-017
  -13.920000000000000          1.0464701929361184E-016
  -13.860000000000001          1.1476410759950279E-016
  -13.800000000000001          1.2411984404593704E-016
  -13.740000000000000          1.3240030818476389E-016
  -13.680000000000000          1.3926669437563483E-016
  -13.620000000000001          1.4435857127804837E-016
  -13.560000000000000          1.4729791090954489E-016
  -13.500000000000000          1.4769409391198336E-016
  -13.440000000000001          1.4514970134040524E-016
  -13.380000000000001          1.3926732624519528E-016
  -13.320000000000000          1.2965711549829619E-016
  -13.260000000000000          1.1594538795329102E-016
  -13.200000000000001          9.7783854187721418E-017
  -13.140000000000001          7.4859708712805024E-017
  -13.080000000000000          4.6906429293504564E-017
  -13.020000000000000          1.3714980068434431E-017
  -12.960000000000001         -2.4854458619553358E-017
  -12.900000000000000         -6.8860443433796895E-017
  -12.840000000000000         -1.1826822129406954E-016
  -12.780000000000001         -1.7293768046501608E-016
  -12.720000000000001         -2.3261185682210373E-016
  -12.660000000000000         -2.9690569566319552E-016
  -12.600000000000000         -3.6529569199676869E-016
  -12.540000000000001         -4.3711112027866375E-016
  -12.480000000000000         -5.1152588593701303E-016
  -12.420000000000000         -5.8755272826689020E-016
  -12.360000000000001         -6.6403933809777953E-016
  -12.300000000000001         -7.3966657172966961E-016
  -12.240000000000000         -8.1294979909780095E-016
  -12.180000000000000         -8.8224289139574302E-016
  -12.120000000000001         -9.4574576084665227E-016
  -12.060000000000000         -1.0015155885633409E-015
  -12.000000000000000         -1.0474815758765469E-015
  -11.940000000000001         -1.0814645744142366E-015
  -11.880000000000001         -1.1012001884995244E-015
  -11.820000000000000         -1.1043669300174050E-015
  -11.760000000000000         -1.0886188501746109E-015
  -11.700000000000001         -1.0516226877278394E-015
  -11.640000000000001         -9.9109976605326156E-016
  -11.580000000000000         -9.0487181313301465E-016
  -11.520000000000000         -7.9091144774432995E-016
  -11.460000000000001         -6.4739643627441108E-016
  -11.400000000000000         -4.7276709472678820E-016
  -11.340000000000000         -2.6578675394667842E-016
  -11.280000000000001         -2.5603972257764074E-017
  -11.220000000000001          2.4818293193670173E-016
  -11.160000000000000          5.5546236569761763E-016
  -11.100000000000000          8.9554512201020161E-016
  -11.040000000000001          1.2671029368662038E-015
  -10.980000000000000          1.6681101713084325E-015
  -10.920000000000000          2.0957877577499751E-015
  -10.860000000000001          2.5465573061167728E-015
  -10.800000000000001          3.0159978269189520E-015
  -10.740000000000000          3.4988162087207723E-015
  -10.680000000000000          3.9888251417063170E-015
  -10.620000000000001          4.4789337756724066E-015
  -10.560000000000000          4.9611553547859311E-015
  -10.500000000000000          5.4266258484540909E-015
  -10.440000000000001          5.8656446612294124E-015
  -10.380000000000001          6.2677296104927571E-015
  -10.320000000000000          6.6216951140109597E-015
  -10.260000000000000          6.9157479278139804E-015
  -10.200000000000001          7.1376069526779905E-015
  -10.140000000000001          7.2746442435816843E-015
  -10.080000000000000          7.3140480981607907E-015
  -10.020000000000001          7.2430076072499952E-015
  -9.9600000000000009          7.0489194903673041E-015
  -9.9000000000000004          6.7196157840070617E-015
  -9.8399999999999999          6.2436082508191319E-015
  -9.7800000000000011          5.6103529259536023E-015
  -9.7200000000000006          4.8105250399879074E-015
  -9.6600000000000001          3.8363088412599509E-015
  -9.6000000000000014          2.6816959485554368E-015
  -9.5400000000000009          1.3427839358264905E-015
  -9.4800000000000004         -1.8192449861538876E-016
  -9.4199999999999999         -1.8912204913047336E-015
  -9.3600000000000012         -3.7809123465773650E-015
  -9.3000000000000007         -5.8435526982485958E-015
  -9.2400000000000002         -8.0681941789424853E-015
  -9.1799999999999997         -1.0440173005032782E-014
  -9.1200000000000010         -1.2940927017372467E-014
  -9.0600000000000005         -1.5547854448529198E-014
  -9.0000000000000000         -1.8234222366055245E-014
  -8.9400000000000013         -2.0969125714140358E-014
  -8.8800000000000008         -2.3717513843306613E-014
  -8.8200000000000003         -2.6440270650286681E-014
  -8.7599999999999998         -2.9094375879566505E-014
  -8.7000000000000011         -3.1633146091338148E-014
  -8.6400000000000006         -3.4006531518460413E-014
  -8.5800000000000001         -3.6161518883847216E-014
  -8.5200000000000014         -3.8042606958311666E-014
  -8.4600000000000009         -3.9592364929364601E-014
  -8.4000000000000004         -4.0752076961526277E-014
  -8.3399999999999999         -4.1462471095753108E-014
  -8.2800000000000011         -4.1664514383237864E-014
  -8.2200000000000006         -4.1300295391531908E-014
  -8.1600000000000001         -4.0313968940869845E-014
  -8.1000000000000014         -3.8652754036885117E-014
  -8.0400000000000009         -3.6267984600880504E-014
  -7.9800000000000004         -3.3116201356312307E-014
  -7.9200000000000017         -2.9160282437755039E-014
  -7.8599999999999994         -2.4370545321138283E-014
  -7.8000000000000007         -1.8725900081942601E-014
  -7.7400000000000020         -1.2214963241718702E-014
  -7.6799999999999997         -4.8370847935742049E-015
  -7.6200000000000010          3.3965443864668156E-015
  -7.5600000000000023          1.2462025360731236E-014
  -7.5000000000000000          2.2321851435315445E-014
  -7.4400000000000013          3.2924154346309852E-014
  -7.3799999999999990          4.4202103364884037E-014
  -7.3200000000000003          5.6073439528766548E-014
  -7.2600000000000016          6.8440105472159047E-014
  -7.1999999999999993          8.1188216399513946E-014
  -7.1400000000000006          9.4188057927447677E-014
  -7.0800000000000018          1.0729443385032177E-013
  -7.0199999999999996          1.2034715409524823E-013
  -6.9600000000000009          1.3317176194039791E-013
  -6.9000000000000021          1.4558059130912379E-013
  -6.8399999999999999          1.5737397165178140E-013
  -6.7800000000000011          1.6834180471357098E-013
  -6.7199999999999989          1.7826521563933033E-013
  -6.6600000000000001          1.8691868872910560E-013
  -6.6000000000000014          1.9407227804124413E-013
  -6.5399999999999991          1.9949409081008937E-013
  -6.4800000000000004          2.0295306419650289E-013
  -6.4200000000000017          2.0422183639946279E-013
  -6.3599999999999994          2.0307994043541690E-013
  -6.3000000000000007          1.9931701624442317E-013
  -6.2400000000000020          1.9273626279710492E-013
  -6.1799999999999997          1.8315797073643717E-013
  -6.1200000000000010          1.7042309267610556E-013
  -6.0600000000000023          1.5439685798778182E-013
  -6.0000000000000000          1.3497242951440894E-013
  -5.9400000000000013          1.1207438777015702E-013
  -5.8799999999999990          8.5662327911419713E-014
  -5.8200000000000003          5.5734072093547271E-014
  -5.7600000000000016          2.2328824873245598E-014
  -5.6999999999999993         -1.4469872612697087E-014
  -5.6400000000000006         -5.4531600182244942E-014
  -5.5800000000000018         -9.7676736196216668E-014
  -5.5199999999999996         -1.4367460131944588E-013
  -5.4600000000000009         -1.9224221391621943E-013
  -5.4000000000000021         -2.4304299259125204E-013
  -5.3399999999999999         -2.9568665049202525E-013
  -5.2800000000000011         -3.4972918463624271E-013
  -5.2200000000000024         -4.0467371657132315E-013
  -5.1600000000000001         -4.5997205866538949E-013
  -5.1000000000000014         -5.1502661334728431E-013
  -5.0399999999999991         -5.6919332744770813E-013
  -4.9800000000000004         -6.2178525267267933E-013
  -4.9200000000000017         -6.7207670783028980E-013
  -4.8599999999999994         -7.1930856959848745E-013
  -4.8000000000000007         -7.6269384936731715E-013
  -4.7400000000000020         -8.0142430303273684E-013
  -4.6799999999999997         -8.3467753727487664E-013
  -4.6200000000000010         -8.6162524853160388E-013
  -4.5600000000000023         -8.8144154522869320E-013
  -4.5000000000000000         -8.9331224805486716E-013
  -4.4400000000000013         -8.9644458268446162E-013
  -4.3799999999999990         -8.9007737538005655E-013
  -4.3200000000000003         -8.7349202732974441E-013
  -4.2600000000000016         -8.4602310606535368E-013
  -4.1999999999999993         -8.0706958059898147E-013
  -4.1400000000000006         -7.5610618113374428E-013
  -4.0800000000000018         -6.9269522088073803E-013
  -4.0199999999999996         -6.1649676446463382E-013
  -3.9600000000000009         -5.2728054845071340E-013
  -3.9000000000000021         -4.2493631475114164E-013
  -3.8399999999999999         -3.0948351295428293E-013
  -3.7800000000000011         -1.8108134816511518E-013
  -3.7200000000000024         -4.0036887434165702E-014
  -3.6600000000000001          1.1318708387691253E-013
  -3.6000000000000014          2.7796544881237647E-013
  -3.5399999999999991          4.5350545748899191E-013
  -3.4800000000000004          6.3884320828765469E-013
  -3.4200000000000017          8.3284073725539045E-013
  -3.3599999999999994          1.0341858903414459E-012
  -3.3000000000000007          1.2413927064580411E-012
  -3.2400000000000020          1.4528050328159990E-012
  -3.1799999999999997          1.6666013119342165E-012
  -3.1200000000000010          1.8808009248147660E-012
  -3.0600000000000023          2.0932744556697336E-012
  -3.0000000000000000          2.3017542987544647E-012
  -2.9400000000000013          2.5038479051994026E-012
  -2.8800000000000026          2.6970535395353426E-012
  -2.8200000000000003          2.8787787661105675E-012
  -2.7600000000000016          3.0463592578795682E-012
  -2.6999999999999993          3.1970811635120848E-012
  -2.6400000000000006          3.3282046970732583E-012
  -2.5800000000000018          3.4369898155460782E-012
  -2.5199999999999996          3.5207231525214838E-012
  -2.4600000000000009          3.5767465425488553E-012
  -2.4000000000000021          3.6024868752992247E-012
  -2.3399999999999999          3.5954866852414510E-012
  -2.2800000000000011          3.5534358678458036E-012
  -2.2200000000000024          3.4742030605379361E-012
  -2.1600000000000001          3.3558680309314537E-012
  -2.1000000000000014          3.1967527465860972E-012
  -2.0399999999999991          2.9954536140050949E-012
  -1.9800000000000004          2.7508712205080816E-012
  -1.9200000000000017          2.4622396405861216E-012
  -1.8599999999999994          2.1291545233015634E-012
  -1.8000000000000007          1.7515980689423468E-012
  -1.7400000000000020          1.3299632786371083E-012
  -1.6799999999999997          8.6507460917659419E-013
  -1.6200000000000010          3.5820587951226609E-013
  -1.5600000000000023         -1.8890496639604933E-013
  -1.5000000000000000         -7.7404448022074676E-013
  -1.4400000000000013         -1.3945160547462183E-012
  -1.3800000000000026         -2.0471370475541340E-012
  -1.3200000000000003         -2.7282381435699008E-012
  -1.2600000000000016         -3.4336703169977704E-012
  -1.1999999999999993         -4.1588133570861825E-012
  -1.1400000000000006         -4.8985899148293273E-012
  -1.0800000000000018         -5.6474857156172359E-012
  -1.0199999999999996         -6.3995722651918655E-012
 -0.96000000000000085         -7.1485351902566204E-012
 -0.90000000000000213         -7.8877080010432878E-012
 -0.83999999999999986         -8.6101100731846096E-012
 -0.78000000000000114         -9.3084874181263906E-012
 -0.72000000000000242         -9.9753595720721536E-012
 -0.66000000000000014         -1.0603069566709821E-011
 -0.60000000000000142         -1.1183838062564669E-011
 -0.53999999999999915         -1.1709819398075084E-011
 -0.48000000000000043         -1.2173165211052115E-011
 -0.42000000000000171         -1.2566082641011890E-011
 -0.35999999999999943         -1.2880902883630281E-011
 -0.30000000000000071         -1.3110147584788632E-011
 -0.24000000000000199         -1.3246595514083850E-011
 -0.17999999999999972         -1.3283355187002055E-011
 -0.12000000000000099         -1.3213931791334967E-011
  -6.0000000000002274E-002    -1.3032297429350023E-011
   0.0000000000000000         -1.2732963648841142E-011
   5.9999999999998721E-002    -1.2311044785553773E-011
  0.11999999999999744         -1.1762328252555456E-011
  0.17999999999999972         -1.1083335285152405E-011
  0.23999999999999844         -1.0271387955467747E-011
  0.30000000000000071         -9.3246652323127295E-012
  0.35999999999999943         -8.2422569599942461E-012
  0.41999999999999815         -7.0242189087727394E-012
  0.48000000000000043         -5.6716136206758220E-012
  0.53999999999999915         -4.1865627677623719E-012
  0.59999999999999787         -2.5722724047726278E-012
  0.66000000000000014         -8.3307056175337511E-013
  0.71999999999999886          1.0255730582140563E-012
  0.77999999999999758          2.9970207412247896E-012
  0.83999999999999986          5.0734623756766526E-012
  0.89999999999999858          7.2459101448524295E-012
  0.96000000000000085          9.5042022908277645E-012
   1.0199999999999996          1.1837010792976196E-011
   1.0799999999999983          1.4231862677945030E-011
   1.1400000000000006          1.6675168267027027E-011
   1.1999999999999993          1.9152253329646194E-011
   1.2599999999999980          2.1647406090720555E-011
   1.3200000000000003          2.4143927240410796E-011
   1.3799999999999990          2.6624191372416910E-011
   1.4399999999999977          2.9069719125389994E-011
   1.5000000000000000          3.1461252043710937E-011
   1.5599999999999987          3.3778837247309270E-011
   1.6199999999999974          3.6001928886731031E-011
   1.6799999999999997          3.8109485702344264E-011
   1.7399999999999984          4.0080086044903128E-011
   1.8000000000000007          4.1892043299013675E-011
   1.8599999999999994          4.3523532374839956E-011
   1.9199999999999982          4.4952724737499810E-011
   1.9800000000000004          4.6157925633329960E-011
   2.0399999999999991          4.7117728029069597E-011
   2.0999999999999979          4.7811147100327138E-011
   2.1600000000000001          4.8217786689405743E-011
   2.2199999999999989          4.8318002980111371E-011
   2.2799999999999976          4.8093058742864419E-011
   2.3399999999999999          4.7525283991940212E-011
   2.3999999999999986          4.6598262482452166E-011
   2.4599999999999973          4.5296982345925915E-011
   2.5199999999999996          4.3608009111040415E-011
   2.5799999999999983          4.1519646643228897E-011
   2.6400000000000006          3.9022102685481158E-011
   2.6999999999999993          3.6107656913178700E-011
   2.7599999999999980          3.2770805319520238E-011
   2.8200000000000003          2.9008404897151467E-011
   2.8799999999999990          2.4819835635892003E-011
   2.9399999999999977          2.0207110236929281E-011
   3.0000000000000000          1.5175015294333733E-011
   3.0599999999999987          9.7312187978710188E-012
   3.1199999999999974          3.8863776250724656E-012
   3.1799999999999997         -2.3457802448440603E-012
   3.2399999999999984         -8.9483743760679030E-012
   3.3000000000000007         -1.5901311383511181E-011
   3.3599999999999994         -2.3181238778872071E-011
   3.4199999999999982         -3.0761516809646686E-011
   3.4800000000000004         -3.8612203924788256E-011
   3.5399999999999991         -4.6700066754416795E-011
   3.5999999999999979         -5.4988603153260066E-011
   3.6600000000000001         -6.3438082483296992E-011
   3.7199999999999989         -7.2005608950023166E-011
   3.7799999999999976         -8.0645222305444062E-011
   3.8399999999999999         -8.9307979826179701E-011
   3.8999999999999986         -9.7942099093180658E-011
   3.9599999999999973         -1.0649308709154095E-010
   4.0199999999999996         -1.1490394088803966E-010
   4.0799999999999983         -1.2311528726326461E-010
   4.1400000000000006         -1.3106564098389064E-010
   4.1999999999999993         -1.3869161114915875E-010
   4.2599999999999980         -1.4592816399657613E-010
   4.3200000000000003         -1.5270887170944356E-010
   4.3799999999999990         -1.5896623786602852E-010
   4.4399999999999977         -1.6463197686668059E-010
   4.5000000000000000         -1.6963738602155994E-010
   4.5599999999999987         -1.7391364630067193E-010
   4.6199999999999974         -1.7739222205533768E-010
   4.6799999999999997         -1.8000522484110596E-010
   4.7399999999999984         -1.8168585637281553E-010
   4.7999999999999972         -1.8236874575064126E-010
   4.8599999999999994         -1.8199045607514586E-010
   4.9199999999999982         -1.8048987774885047E-010
   4.9800000000000004         -1.7780869164508885E-010
   5.0399999999999991         -1.7389187521083850E-010
   5.0999999999999979         -1.6868811781958558E-010
   5.1600000000000001         -1.6215031990674147E-010
   5.2199999999999989         -1.5423608744757848E-010
   5.2799999999999976         -1.4490824831132456E-010
   5.3399999999999999         -1.3413528973172322E-010
   5.3999999999999986         -1.2189188943426194E-010
   5.4599999999999973         -1.0815936924093315E-010
   5.5199999999999996         -9.2926233463661771E-011
   5.5799999999999983         -7.6188578856530807E-011
   5.6400000000000006         -5.7950633840650306E-011
   5.6999999999999993         -3.8225150082394057E-011
   5.7599999999999980         -1.7033855919083507E-011
   5.8200000000000003          5.5921373128724107E-012
   5.8799999999999990          2.9611908761971565E-011
   5.9399999999999977          5.4974440056807193E-011
   6.0000000000000000          8.1618243481788581E-011
   6.0599999999999987          1.0947102888983157E-010
   6.1199999999999974          1.3844950935387520E-010
   6.1799999999999997          1.6845918494069546E-010
   6.2399999999999984          1.9939414025606434E-010
   6.2999999999999972          2.3113698161229041E-010
   6.3599999999999994          2.6355873187383860E-010
   6.4199999999999982          2.9651887567917632E-010
   6.4800000000000004          3.2986541146257500E-010
   6.5399999999999991          3.6343499726537357E-010
   6.5999999999999979          3.9705314216492648E-010
   6.6600000000000001          4.3053444360548041E-010
   6.7199999999999989          4.6368306173417219E-010
   6.7799999999999976          4.9629303292661412E-010
   6.8399999999999999          5.2814878559132738E-010
   6.8999999999999986          5.5902588291071647E-010
   6.9599999999999973          5.8869149862741177E-010
   7.0199999999999996          6.1690534495630629E-010
   7.0799999999999983          6.4342040529037615E-010
   7.1400000000000006          6.6798392124110768E-010
   7.1999999999999993          6.9033839146653268E-010
   7.2599999999999980          7.1022272557391476E-010
   7.3200000000000003          7.2737333173633822E-010
   7.3799999999999990          7.4152532096947321E-010
   7.4399999999999977          7.5241398607870531E-010
   7.5000000000000000          7.5977602436697099E-010
   7.5599999999999987          7.6335106871888796E-010
   7.6199999999999974          7.6288322423204433E-010
   7.6799999999999997          7.5812253205682612E-010
   7.7399999999999984          7.4882657339995480E-010
   7.7999999999999972          7.3476219558349022E-010
   7.8599999999999994          7.1570711719905746E-010
   7.9199999999999982          6.9145157740194712E-010
   7.9800000000000004          6.6180013165644881E-010
   8.0399999999999991          6.2657325289792702E-010
   8.1000000000000014          5.8560910887992773E-010
   8.1599999999999966          5.3876513436462099E-010
   8.2199999999999989          4.8591977383272392E-010
   8.2800000000000011          4.2697416491254444E-010
   8.3399999999999963          3.6185354103076237E-010
   8.3999999999999986          2.9050901667750814E-010
   8.4600000000000009          2.1291871088439289E-010
   8.5199999999999960          1.2908952009964626E-010
   8.5799999999999983          3.9058057761311446E-011
   8.6400000000000006         -5.7107899886636881E-011