  -24.000000000000000          0.0000000000000000     
  -23.940000000000001          0.0000000000000000     
  -23.879999999999999          0.0000000000000000     
  -23.820000000000000          0.0000000000000000     
  -23.760000000000002          0.0000000000000000     
  -23.699999999999999          0.0000000000000000     
  -23.640000000000001          0.0000000000000000     
  -23.579999999999998          0.0000000000000000     
  -23.520000000000000          0.0000000000000000     
  -23.460000000000001          0.0000000000000000     
  -23.399999999999999          0.0000000000000000     
  -23.340000000000000          0.0000000000000000     
  -23.280000000000001          0.0000000000000000     
  -23.219999999999999          0.0000000000000000     
  -23.160000000000000          0.0000000000000000     
  -23.100000000000001          0.0000000000000000     
  -23.039999999999999          0.0000000000000000     
  -22.980000000000000          0.0000000000000000     
  -22.920000000000002          0.0000000000000000     
  -22.859999999999999          0.0000000000000000     
  -22.800000000000001          0.0000000000000000     
  -22.739999999999998          0.0000000000000000     
  -22.680000000000000          0.0000000000000000     
  -22.620000000000001          0.0000000000000000     
  -22.559999999999999          0.0000000000000000     
  -22.500000000000000          0.0000000000000000     
  -22.440000000000001          0.0000000000000000     
  -22.379999999999999          0.0000000000000000     
  -22.320000000000000          0.0000000000000000     
  -22.260000000000002          0.0000000000000000     
  -22.199999999999999          0.0000000000000000     
  -22.140000000000001          0.0000000000000000     
  -22.079999999999998          0.0000000000000000     
  -22.020000000000000          0.0000000000000000     
  -21.960000000000001          0.0000000000000000     
  -21.899999999999999          0.0000000000000000     
  -21.840000000000000          0.0000000000000000     
  -21.780000000000001          0.0000000000000000     
  -21.719999999999999          0.0000000000000000     
  -21.660000000000000          0.0000000000000000     
  -21.600000000000001          0.0000000000000000     
  -21.539999999999999          0.0000000000000000     
  -21.480000000000000          0.0000000000000000     
  -21.420000000000002          0.0000000000000000     
  -21.359999999999999          0.0000000000000000     
  -21.300000000000001          0.0000000000000000     
  -21.240000000000002          0.0000000000000000     
  -21.180000000000000          0.0000000000000000     
  -21.120000000000001          0.0000000000000000     
  -21.059999999999999          0.0000000000000000     
  -21.000000000000000          0.0000000000000000     
  -20.940000000000001          0.0000000000000000     
  -20.879999999999999          0.0000000000000000     
  -20.820000000000000          0.0000000000000000     
  -20.760000000000002          0.0000000000000000     
  -20.699999999999999          0.0000000000000000     
  -20.640000000000001          0.0000000000000000     
  -20.579999999999998          0.0000000000000000     
  -20.520000000000000          0.0000000000000000     
  -20.460000000000001          0.0000000000000000     
  -20.399999999999999          0.0000000000000000     
  -20.340000000000000          0.0000000000000000     
  -20.280000000000001          0.0000000000000000     
  -20.219999999999999          0.0000000000000000     
  -20.160000000000000          0.0000000000000000     
  -20.100000000000001          0.0000000000000000     
  -20.039999999999999          0.0000000000000000     
  -19.980000000000000          0.0000000000000000     
  -19.920000000000002          0.0000000000000000     
  -19.859999999999999          0.0000000000000000     
  -19.800000000000001          0.0000000000000000     
  -19.740000000000002          0.0000000000000000     
  -19.680000000000000          0.0000000000000000     
  -19.620000000000001          0.0000000000000000     
  -19.560000000000002          0.0000000000000000     
  -19.500000000000000          0.0000000000000000     
  -19.440000000000001          0.0000000000000000     
  -19.379999999999999          0.0000000000000000     
  -19.320000000000000          0.0000000000000000     
  -19.259999999999998          0.0000000000000000     
  -19.199999999999999          0.0000000000000000     
  -19.140000000000001          0.0000000000000000     
  -19.079999999999998          0.0000000000000000     
  -19.020000000000000          0.0000000000000000     
  -18.960000000000001          0.0000000000000000     
  -18.899999999999999          0.0000000000000000     
  -18.840000000000000          0.0000000000000000     
  -18.780000000000001          0.0000000000000000     
  -18.719999999999999          0.0000000000000000     
  -18.660000000000000          0.0000000000000000     
  -18.600000000000001          0.0000000000000000     
  -18.539999999999999          0.0000000000000000     
  -18.480000000000000          0.0000000000000000     
  -18.420000000000002          0.0000000000000000     
  -18.359999999999999          0.0000000000000000     
  -18.300000000000001          0.0000000000000000     
  -18.240000000000002          0.0000000000000000     
  -18.180000000000000          0.0000000000000000     
  -18.120000000000001          0.0000000000000000     
  -18.060000000000002          0.0000000000000000     
  -18.000000000000000          0.0000000000000000     
  -17.940000000000001          0.0000000000000000     
  -17.879999999999999          0.0000000000000000     
  -17.820000000000000          0.0000000000000000     
  -17.759999999999998          0.0000000000000000     
  -17.699999999999999          0.0000000000000000     
  -17.640000000000001          0.0000000000000000     
  -17.579999999999998          0.0000000000000000     
  -17.520000000000000          0.0000000000000000     
  -17.460000000000001          0.0000000000000000     
  -17.399999999999999          0.0000000000000000     
  -17.340000000000000          0.0000000000000000     
  -17.280000000000001          0.0000000000000000     
  -17.219999999999999          0.0000000000000000     
  -17.160000000000000          0.0000000000000000     
  -17.100000000000001          0.0000000000000000     
  -17.039999999999999          0.0000000000000000     
  -16.980000000000000          0.0000000000000000     
  -16.920000000000002          0.0000000000000000     
  -16.859999999999999          0.0000000000000000     
  -16.800000000000001          0.0000000000000000     
  -16.740000000000002          0.0000000000000000     
  -16.680000000000000          0.0000000000000000     
  -16.620000000000001          0.0000000000000000     
  -16.560000000000002          0.0000000000000000     
  -16.500000000000000          0.0000000000000000     
  -16.440000000000001          0.0000000000000000     
  -16.379999999999999          0.0000000000000000     
  -16.320000000000000          0.0000000000000000     
  -16.260000000000002          0.0000000000000000     
  -16.199999999999999          0.0000000000000000     
  -16.140000000000001          0.0000000000000000     
  -16.079999999999998          0.0000000000000000     
  -16.020000000000000          0.0000000000000000     
  -15.960000000000001          0.0000000000000000     
  -15.900000000000000          0.0000000000000000     
  -15.840000000000000          0.0000000000000000     
  -15.780000000000001          0.0000000000000000     
  -15.720000000000001          0.0000000000000000     
  -15.660000000000000          0.0000000000000000     
  -15.600000000000000          0.0000000000000000     
  -15.540000000000001          0.0000000000000000     
  -15.480000000000000          0.0000000000000000     
  -15.420000000000000          0.0000000000000000     
  -15.359999999999999          0.0000000000000000     
  -15.300000000000001          0.0000000000000000     
  -15.240000000000000          0.0000000000000000     
  -15.180000000000000          0.0000000000000000     
  -15.120000000000001          0.0000000000000000     
  -15.060000000000000          0.0000000000000000     
  -15.000000000000000          0.0000000000000000     
  -14.940000000000000          0.0000000000000000     
  -14.880000000000001          0.0000000000000000     
  -14.820000000000000          0.0000000000000000     
  -14.760000000000000          0.0000000000000000     
  -14.700000000000001          0.0000000000000000     
  -14.640000000000001          0.0000000000000000     
  -14.580000000000000          0.0000000000000000     
  -14.520000000000000         -1.9035248505610229E-041
  -14.460000000000001         -5.3126136001829193E-041
  -14.400000000000000         -1.1207328557794367E-040
  -14.340000000000000         -1.8785504018807416E-040
  -14.280000000000001         -2.7136531916708860E-040
  -14.220000000000001         -3.6883828175089569E-040
  -14.160000000000000         -4.7254541952156558E-040
  -14.100000000000000         -5.7625258919414363E-040
  -14.040000000000001         -6.7995969506290535E-040
  -13.980000000000000         -7.6325857604749891E-040
  -13.920000000000000         -8.1187325585404835E-040
  -13.860000000000001         -8.0935504683154672E-040
  -13.800000000000001         -6.7034146116417591E-040
  -13.740000000000000         -3.7364082690717950E-040
  -13.680000000000000          9.6887706127661562E-041
  -13.620000000000001          7.5027181966617664E-040
  -13.560000000000000          1.5271509792063166E-039
  -13.500000000000000          2.4131317934812235E-039
  -13.440000000000001          3.3837920119144309E-039
  -13.380000000000001          4.3295350535679809E-039
  -13.320000000000000          5.2936234789202704E-039
  -13.260000000000000          6.1874014369331829E-039
  -13.200000000000001          6.8707288895944666E-039
  -13.140000000000001          7.1939092315964340E-039
  -13.080000000000000          6.9766849256109354E-039
  -13.020000000000000          6.4795700608305982E-039
  -12.960000000000001          5.6564015628025964E-039
  -12.900000000000000          4.4825495739863375E-039
  -12.840000000000000          2.9436254661736761E-039
  -12.780000000000001          1.0388735286968620E-039
  -12.720000000000001         -1.2534702889981461E-039
  -12.660000000000000         -3.9108283329525340E-039
  -12.600000000000000         -6.8310953952837309E-039
  -12.540000000000001         -9.5031134296412973E-039
  -12.480000000000000         -1.1761872291370008E-038
  -12.420000000000000         -1.3360496698141463E-038
  -12.360000000000001         -1.4050623446747744E-038
  -12.300000000000001         -1.2942451192559083E-038
  -12.240000000000000         -9.6189555394118312E-039
  -12.180000000000000         -3.3103410054862102E-039
  -12.120000000000001          5.7374660869556332E-039
  -12.060000000000000          1.7590379339194798E-038
  -12.000000000000000          3.1851112993549142E-038
  -11.940000000000001          4.8697464039912834E-038
  -11.880000000000001          6.8046386835774376E-038
  -11.820000000000000          8.9631105409599436E-038
  -11.760000000000000          1.1248020299667469E-037
  -11.700000000000001          1.3491192804755574E-037
  -11.640000000000001          1.5421235081591336E-037
  -11.580000000000000          1.6971554553676419E-037
  -11.520000000000000          1.7623171733615890E-037
  -11.460000000000001          1.7212985923314536E-037
  -11.400000000000000          1.5493808636389793E-037
  -11.340000000000000          1.2409702191925947E-037
  -11.280000000000001          7.7663167520616393E-038
  -11.220000000000001          1.4254894617161954E-038
  -11.160000000000000         -6.7374239943564962E-038
  -11.100000000000000         -1.6707136574852963E-037
  -11.040000000000001         -2.8227729223122989E-037
  -10.980000000000000         -4.0742167559475455E-037
  -10.920000000000000         -5.4301923966456959E-037
  -10.860000000000001         -6.8395895026412692E-037
  -10.800000000000001         -8.2025668717231539E-037
  -10.740000000000000         -9.4592810898564251E-037
  -10.680000000000000         -1.0548190215174242E-036
  -10.620000000000001         -1.1382568274909233E-036
  -10.560000000000000         -1.1854432387484990E-036
  -10.500000000000000         -1.1831483991375743E-036
  -10.440000000000001         -1.1184337290909873E-036
  -10.380000000000001         -9.7840763428766658E-037
  -10.320000000000000         -7.5310218210252671E-037
  -10.260000000000000         -4.3786486717289209E-037
  -10.200000000000001         -2.8944251995751540E-038
  -10.140000000000001          4.8787978594903964E-037
  -10.080000000000000          1.1110266598978541E-036
  -10.020000000000001          1.8331592631563903E-036
  -9.9600000000000009          2.6274249262821931E-036
  -9.9000000000000004          3.4538346218350811E-036
  -9.8399999999999999          4.2933409411278199E-036
  -9.7800000000000011          5.1017507645339026E-036
  -9.7200000000000006          5.8236055452854559E-036
  -9.6600000000000001          6.4080494416763764E-036
  -9.6000000000000014          6.7889075212439598E-036
  -9.5400000000000009          6.8836542325510197E-036
  -9.4800000000000004          6.5978785920502275E-036
  -9.4199999999999999          5.8577539785069483E-036
  -9.3600000000000012          4.6140199599432135E-036
  -9.3000000000000007          2.7808430188788835E-036
  -9.2400000000000002          2.6212809624961319E-037
  -9.1799999999999997         -2.9830798987021830E-036
  -9.1200000000000010         -6.9424159206574188E-036
  -9.0600000000000005         -1.1601635212554186E-035
  -9.0000000000000000         -1.6905125223502966E-035
  -8.9400000000000013         -2.2746963269599308E-035
  -8.8800000000000008         -2.8965534414244944E-035
  -8.8200000000000003         -3.5363049238555655E-035
  -8.7599999999999998         -4.1639178293356664E-035
  -8.7000000000000011         -4.7401802275862426E-035
  -8.6400000000000006         -5.2178989663259830E-035
  -8.5800000000000001         -5.5437603173651439E-035
  -8.5200000000000014         -5.6632937116260947E-035
  -8.4600000000000009         -5.5092858310518920E-035
  -8.4000000000000004         -5.0194705731748312E-035
  -8.3399999999999999         -4.1284438943458334E-035
  -8.2800000000000011         -2.7742359370064657E-035
  -8.2200000000000006         -9.0267986309556365E-036
  -8.1600000000000001          1.5274635864269274E-035
  -8.1000000000000014          4.5398249784815580E-035
  -8.0400000000000009          8.1333412137785895E-035
  -7.9800000000000004          1.2276594967039012E-034
  -7.9200000000000017          1.6901127610197875E-034
  -7.8599999999999994          2.1895843993822119E-034
  -7.8000000000000007          2.7100875236353356E-034
  -7.7400000000000020          3.2304749404515811E-034
  -7.6799999999999997          3.7240308488753209E-034
  -7.6200000000000010          4.1584777509691827E-034
  -7.5600000000000023          4.4959459493151911E-034
  -7.5000000000000000          4.6939601589358713E-034
  -7.4400000000000013          4.7065298559429671E-034
  -7.3799999999999990          4.4848726194519309E-034
  -7.3200000000000003          3.9795117584578896E-034
  -7.2600000000000016          3.1426064071845510E-034
  -7.1999999999999993          1.9305594496675868E-034
  -7.1400000000000006          3.0760102109417372E-035
  -7.0800000000000018         -1.7502689136317050E-034
  -7.0199999999999996         -4.2517052736575028E-034
  -6.9600000000000009         -7.1856027917026637E-034
  -6.9000000000000021         -1.0516730240830085E-033
  -6.8399999999999999         -1.4181162492695468E-033
  -6.7800000000000011         -1.8082895614709429E-033
  -6.7199999999999989         -2.2090424437242891E-033
  -6.6600000000000001         -2.6034394536674602E-033
  -6.6000000000000014         -2.9706607059116025E-033
  -6.5399999999999991         -3.2860552361498633E-033
  -6.4800000000000004         -3.5214220521160683E-033
  -6.4200000000000017         -3.6455033523852641E-033
  -6.3599999999999994         -3.6247343220852231E-033
  -6.3000000000000007         -3.4243457917754395E-033
  -6.2400000000000020         -3.0096269963143138E-033
  -6.1799999999999997         -2.3476895077539976E-033
  -6.1200000000000010         -1.4095110644632748E-033
  -6.0600000000000023         -1.7217773955784347E-034
  -6.0000000000000000          1.3785733797488453E-033
  -5.9400000000000013          3.2456107503681913E-033
  -5.8799999999999990          5.4175671662177873E-033
  -5.8200000000000003          7.8660087033492900E-033
  -5.7600000000000016          1.0542736809336545E-032
  -5.6999999999999993          1.3377395051264576E-032
  -5.6400000000000006          1.6275550904397555E-032
  -5.5800000000000018          1.9117451291029895E-032
  -5.5199999999999996          2.1757672004884737E-032
  -5.4600000000000009          2.4025881458004742E-032
  -5.4000000000000021          2.5728909057485924E-032
  -5.3399999999999999          2.6654366027965825E-032
  -5.2800000000000011          2.6575952710230153E-032
  -5.2200000000000024          2.5260643353073688E-032
  -5.1600000000000001          2.2477792443118888E-032
  -5.1000000000000014          1.8010192083876843E-032
  -5.0399999999999991          1.1667047642004810E-032
  -4.9800000000000004          3.2986551072245384E-033
  -4.9200000000000017         -7.1874743947387394E-033
  -4.8599999999999994         -1.9809429326687569E-032
  -4.8000000000000007         -3.4493240069246958E-032
  -4.7400000000000020         -5.1055411415135842E-032
  -4.6799999999999997         -6.9186454937480892E-032
  -4.6200000000000010         -8.8436429695889020E-032
  -4.5600000000000023         -1.0820349441347924E-031
  -4.5000000000000000         -1.2772673408715402E-031
  -4.4400000000000013         -1.4608442622202488E-031
  -4.3799999999999990         -1.6219908512059864E-031
  -4.3200000000000003         -1.7485045609313494E-031
  -4.2600000000000016         -1.8269771655560886E-031
  -4.1999999999999993         -1.8431168279851414E-031
  -4.1400000000000006         -1.7821810264147362E-031
  -4.0800000000000018         -1.6295219024202237E-031
  -4.0199999999999996         -1.3712462744150363E-031
  -3.9600000000000009         -9.9498505419994653E-032
  -3.9000000000000021         -4.9076359334643828E-032
  -3.8399999999999999          1.4804557309382490E-032
  -3.7800000000000011          9.2370962211024323E-032
  -3.7200000000000024          1.8330936988902427E-031
  -3.6600000000000001          2.8666273198667335E-031
  -3.6000000000000014          4.0073291783929542E-031
  -3.5399999999999991          5.2299417785312582E-031
  -3.4800000000000004          6.5002327679452373E-031
  -3.4200000000000017          7.7745348328675702E-031
  -3.3599999999999994          8.9995885750028430E-031
  -3.3000000000000007          1.0112757468766001E-030
  -3.2400000000000020          1.1042687191400456E-030
  -3.1799999999999997          1.1710469887004321E-030
  -3.1200000000000010          1.2031371564120458E-030
  -3.0600000000000023          1.1917162888978778E-030
  -3.0000000000000000          1.1279081667767168E-030
  -2.9400000000000013          1.0031436296660698E-030
  -2.8800000000000026          8.0958212056484867E-031
  -2.8200000000000003          5.4059039258697212E-031
  -2.7600000000000016          1.9127026039328068E-031
  -2.6999999999999993         -2.4097863701273741E-031
  -2.6400000000000006         -7.5587395930047250E-031
  -2.5800000000000018         -1.3496661144937538E-030
  -2.5199999999999996         -2.0145762811572415E-030
  -2.4600000000000009         -2.7382867444929842E-030
  -2.4000000000000021         -3.5035119561291931E-030
  -2.3399999999999999         -4.2876875872972108E-030
  -2.2800000000000011         -5.0628112948880105E-030
  -2.2200000000000024         -5.7954726166067738E-030
  -2.1600000000000001         -6.4471083255984695E-030
  -2.1000000000000014         -6.9745199860825157E-030
  -2.0399999999999991         -7.3306794851002305E-030
  -1.9800000000000004         -7.4658529740095171E-030
  -1.9200000000000017         -7.3290567005744774E-030
  -1.8599999999999994         -6.8698544697525679E-030
  -1.8000000000000007         -6.0404876492365518E-030
  -1.7400000000000020         -4.7983203902276300E-030
  -1.6799999999999997         -3.1085678989052082E-030
  -1.6200000000000010         -9.4724285836714497E-031
  -1.5600000000000023          1.6957400767686255E-030
  -1.5000000000000000          4.8134056714232646E-030
  -1.4400000000000013          8.3786169654169632E-030
  -1.3800000000000026          1.2341160130576948E-029
  -1.3200000000000003          1.6625176263310330E-029
  -1.2600000000000016          2.1127095490070705E-029
  -1.1999999999999993          2.5714260019254130E-029
  -1.1400000000000006          3.0224416768109830E-029
  -1.0800000000000018          3.4466277209960402E-029
  -1.0199999999999996          3.8221304873482031E-029
 -0.96000000000000085          4.1246913448327638E-029
 -0.90000000000000213          4.3281219671278504E-029
 -0.83999999999999986          4.4049430335296131E-029
 -0.78000000000000114          4.3271972420092685E-029
 -0.72000000000000242          4.0674351861130293E-029
 -0.66000000000000014          3.5998686882622958E-029
 -0.60000000000000142          2.9016793311123168E-029
 -0.53999999999999915          1.9544606923414145E-029
 -0.48000000000000043          7.4576599025597410E-030
 -0.42000000000000171         -7.2928203635815229E-030
 -0.35999999999999943         -2.4663658088375561E-029
 -0.30000000000000071         -4.4503923702174537E-029
 -0.24000000000000199         -6.6540246702076113E-029
 -0.17999999999999972         -9.0364031970054114E-029
 -0.12000000000000099         -1.1542138812571243E-028
  -6.0000000000002274E-002    -1.4100665055588687E-028
   0.0000000000000000         -1.6626046764410941E-028
   5.9999999999998721E-002    -1.9017322188831870E-028
  0.11999999999999744         -2.1159474666146028E-028
  0.17999999999999972         -2.2925114382988351E-028
  0.23999999999999844         -2.4176918227175682E-028
  0.30000000000000071         -2.4770901381141738E-028
  0.35999999999999943         -2.4560527152336231E-028
  0.41999999999999815         -2.3401666218566542E-028
  0.48000000000000043         -2.1158367568865372E-028
  0.53999999999999915         -1.7709383248612399E-028
  0.59999999999999787         -1.2955333779895968E-028
  0.66000000000000014         -6.8263613857518132E-029
  0.71999999999999886          7.0990886844962130E-030
  0.77999999999999758          9.6403421694038949E-029
  0.83999999999999986          1.9898500157684766E-028
  0.89999999999999858          3.1357375435516890E-028
  0.96000000000000085          4.3823041397641535E-028
   1.0199999999999996          5.7029587659570603E-028
   1.0799999999999983          7.0635782522370606E-028
   1.1400000000000006          8.4223826942573298E-028
   1.1999999999999993          9.7300702945717733E-028
   1.2599999999999980          1.0930243601158191E-027
   1.3200000000000003          1.1960166400449330E-027
   1.3799999999999990          1.2751886333769028E-027
   1.4399999999999977          1.3233735142195509E-027
   1.5000000000000000          1.3332230749289890E-027
   1.5599999999999987          1.2974375908886346E-027
   1.6199999999999974          1.2090342844392737E-027
   1.6799999999999997          1.0616509056647306E-027
   1.7399999999999984          8.4988125766674935E-028
   1.8000000000000007          5.6963384881534626E-028
   1.8599999999999994          2.1850766505759826E-028
   1.9199999999999982         -2.0382799652980476E-028
   1.9800000000000004         -6.9525987766135307E-028
   2.0399999999999991         -1.2508785462060629E-027
   2.0999999999999979         -1.8626645971361379E-027
   2.1600000000000001         -2.5192293467890815E-027
   2.2199999999999989         -3.2056282330233278E-027
   2.2799999999999976         -3.9032664412598937E-027
   2.3399999999999999         -4.5899167100761615E-027
   2.3999999999999986         -5.2398645176223557E-027
   2.4599999999999973         -5.8241997248327501E-027
   2.5199999999999996         -6.3112685207266132E-027
   2.5799999999999983         -6.6672943512083663E-027
   2.6400000000000006         -6.8571799046580024E-027
   2.6999999999999993         -6.8454878629455813E-027
   2.7599999999999980         -6.5975975848401302E-027
   2.8200000000000003         -6.0810277693954504E-027
   2.8799999999999990         -5.2669096634512394E-027
   2.9399999999999977         -4.1315795593107631E-027
   3.0000000000000000         -2.6582609282413972E-027
   3.0599999999999987         -8.3879205348754667E-028
   3.1199999999999974          1.3246528067329301E-027
   3.1799999999999997          3.8179038559827579E-027
   3.2399999999999984          6.6132757090569441E-027
   3.3000000000000007          9.6682409898717602E-027
   3.3599999999999994          1.2924397086333697E-026
   3.4199999999999982          1.6306790054788903E-026
   3.4800000000000004          1.9723684388037433E-026
   3.5399999999999991          2.3066854563902524E-026
   3.5999999999999979          2.6212481489677160E-026
   3.6600000000000001          2.9022708324930636E-026
   3.7199999999999989          3.1347918173629420E-026
   3.7799999999999976          3.3029775448755342E-026
   3.8399999999999999          3.3905039873256822E-026
   3.8999999999999986          3.3810162500592582E-026
   3.9599999999999973          3.2586639608996356E-026
   4.0199999999999996          3.0087047164075153E-026
   4.0799999999999983          2.6181680575548941E-026
   4.1400000000000006          2.0765683333472288E-026
   4.1999999999999993          1.3766494081509698E-026
   4.2599999999999980          5.1514203089884836E-027
   4.3200000000000003         -5.0648862161009480E-027
   4.3799999999999990         -1.6813303168815897E-026
   4.4399999999999977         -2.9963767879842760E-026
   4.5000000000000000         -4.4319747148155504E-026
   4.5599999999999987         -5.9614024583569949E-026
   4.6199999999999974         -7.5506058223870934E-026
   4.6799999999999997         -9.1581352002044819E-026
   4.7399999999999984         -1.0735305450100430E-025
   4.7999999999999972         -1.2226619345334224E-025
   4.8599999999999994         -1.3570470981010084E-025
   4.9199999999999982         -1.4700155684282102E-025
   4.9800000000000004         -1.5545202632619550E-025
   5.0399999999999991         -1.6033031553755670E-025
   5.0999999999999979         -1.6090930263236783E-025
   5.1600000000000001         -1.5648351207208054E-025
   5.2199999999999989         -1.4639479214397880E-025
   5.2799999999999976         -1.3006057819600865E-025
   5.3399999999999999         -1.0700394337205903E-025
   5.3999999999999986         -7.6885078208011839E-026
   5.4599999999999973         -3.9533155813753927E-026
   5.5199999999999996          5.0222997143291647E-027
   5.5799999999999983          5.6521417255221836E-026
   5.6400000000000006          1.1444684923920376E-025
   5.6999999999999993          1.7800045415444241E-025
   5.7599999999999980          2.4608520843492026E-025
   5.8200000000000003          3.1729385564346584E-025
   5.8799999999999990          3.8990536018090828E-025
   5.9399999999999977          4.6189054035435067E-025
   6.0000000000000000          5.3092833358445979E-025
   6.0599999999999987          5.9443324382234315E-025
   6.1199999999999974          6.4959522126628083E-025
   6.1799999999999997          6.9343234623782630E-025
   6.2399999999999984          7.2285663514832779E-025
   6.2999999999999972          7.3475282294819740E-025
   6.3599999999999994          7.2606961270503409E-025
   6.4199999999999982          6.9392264973159821E-025
   6.4800000000000004          6.3570722491733091E-025
   6.5399999999999991          5.4921914608250004E-025
   6.5999999999999979          4.3278143047923378E-025
   6.6600000000000001          2.8537297587128508E-025
   6.7199999999999989          1.0675667495561461E-025
   6.7799999999999976         -1.0239805549901756E-025
   6.8399999999999999         -3.4040169433611456E-025
   6.8999999999999986         -6.0444601379181512E-025
   6.9599999999999973         -8.9052447180312970E-025
   7.0199999999999996         -1.1933766498684240E-024
   7.0799999999999983         -1.5064636210720745E-024
   7.1400000000000006         -1.8219764072065788E-024
   7.1999999999999993         -2.1308847946928213E-024
   7.2599999999999980         -2.4230290925782305E-024
   7.3200000000000003         -2.6872586716339935E-024
   7.3799999999999990         -2.9116195134701356E-024
   7.4399999999999977         -3.0835930294834601E-024
   7.5000000000000000         -3.1903838565120042E-024
   7.5599999999999987         -3.2192586547776050E-024
   7.6199999999999974         -3.1579298779676116E-024
   7.6799999999999997         -2.9949804625360473E-024
   7.7399999999999984         -2.7203226539091670E-024
   7.7999999999999972         -2.3256830979814734E-024
   7.8599999999999994         -1.8051019972438640E-024
   7.9199999999999982         -1.1554346423502344E-024
   7.9800000000000004         -3.7684180989463360E-025
   8.0399999999999991          5.2674953675339465E-025
   8.1000000000000014          1.5472299271056995E-024
   8.1599999999999966          2.6719545156818920E-024
   8.2199999999999989          3.8834728407218301E-024
   8.2800000000000011          5.1593606341245475E-024
   8.3399999999999963          6.4721721045948610E-024
   8.3999999999999986          7.7895281276117154E-024
   8.4600000000000009          9.0743611472727617E-024
   8.5199999999999960          1.0285327222580863E-023
   8.5799999999999983          1.1377395353880374E-023
   8.6400000000000006          1.2302624016359494E-023