  -24.000000000000000          0.0000000000000000     
  -23.940000000000001          0.0000000000000000     
  -23.879999999999999          0.0000000000000000     
  -23.820000000000000          0.0000000000000000     
  -23.760000000000002          0.0000000000000000     
  -23.699999999999999          0.0000000000000000     
  -23.640000000000001          0.0000000000000000     
  -23.579999999999998          0.0000000000000000     
  -23.520000000000000          0.0000000000000000     
  -23.460000000000001          0.0000000000000000     
  -23.399999999999999          0.0000000000000000     
  -23.340000000000000          0.0000000000000000     
  -23.280000000000001          0.0000000000000000     
  -23.219999999999999          0.0000000000000000     
  -23.160000000000000          0.0000000000000000     
  -23.100000000000001          0.0000000000000000     
  -23.039999999999999          0.0000000000000000     
  -22.980000000000000          0.0000000000000000     
  -22.920000000000002          0.0000000000000000     
  -22.859999999999999          0.0000000000000000     
  -22.800000000000001          0.0000000000000000     
  -22.739999999999998          0.0000000000000000     
  -22.680000000000000          0.0000000000000000     
  -22.620000000000001          0.0000000000000000     
  -22.559999999999999          0.0000000000000000     
  -22.500000000000000          0.0000000000000000     
  -22.440000000000001          0.0000000000000000     
  -22.379999999999999          0.0000000000000000     
  -22.320000000000000          0.0000000000000000     
  -22.260000000000002          0.0000000000000000     
  -22.199999999999999          0.0000000000000000     
  -22.140000000000001          0.0000000000000000     
  -22.079999999999998          0.0000000000000000     
  -22.020000000000000          0.0000000000000000     
  -21.960000000000001          0.0000000000000000     
  -21.899999999999999          0.0000000000000000     
  -21.840000000000000          0.0000000000000000     
  -21.780000000000001          0.0000000000000000     
  -21.719999999999999          0.0000000000000000     
  -21.660000000000000          0.0000000000000000     
  -21.600000000000001          0.0000000000000000     
  -21.539999999999999          0.0000000000000000     
  -21.480000000000000          0.0000000000000000     
  -21.420000000000002          0.0000000000000000     
  -21.359999999999999          0.0000000000000000     
  -21.300000000000001          0.0000000000000000     
  -21.240000000000002          0.0000000000000000     
  -21.180000000000000          0.0000000000000000     
  -21.120000000000001          0.0000000000000000     
  -21.059999999999999          0.0000000000000000     
  -21.000000000000000          0.0000000000000000     
  -20.940000000000001          0.0000000000000000     
  -20.879999999999999          0.0000000000000000     
  -20.820000000000000          0.0000000000000000     
  -20.760000000000002          0.0000000000000000     
  -20.699999999999999          0.0000000000000000     
  -20.640000000000001          0.0000000000000000     
  -20.579999999999998          0.0000000000000000     
  -20.520000000000000          0.0000000000000000     
  -20.460000000000001          0.0000000000000000     
  -20.399999999999999          0.0000000000000000     
  -20.340000000000000          0.0000000000000000     
  -20.280000000000001          0.0000000000000000     
  -20.219999999999999          0.0000000000000000     
  -20.160000000000000          0.0000000000000000     
  -20.100000000000001          0.0000000000000000     
  -20.039999999999999          0.0000000000000000     
  -19.980000000000000          0.0000000000000000     
  -19.920000000000002          0.0000000000000000     
  -19.859999999999999          0.0000000000000000     
  -19.800000000000001          0.0000000000000000     
  -19.740000000000002          0.0000000000000000     
  -19.680000000000000          0.0000000000000000     
  -19.620000000000001          0.0000000000000000     
  -19.560000000000002          0.0000000000000000     
  -19.500000000000000          0.0000000000000000     
  -19.440000000000001          0.0000000000000000     
  -19.379999999999999          0.0000000000000000     
  -19.320000000000000          0.0000000000000000     
  -19.259999999999998          0.0000000000000000     
  -19.199999999999999          0.0000000000000000     
  -19.140000000000001          0.0000000000000000     
  -19.079999999999998          0.0000000000000000     
  -19.020000000000000          0.0000000000000000     
  -18.960000000000001          0.0000000000000000     
  -18.899999999999999          0.0000000000000000     
  -18.840000000000000          0.0000000000000000     
  -18.780000000000001          0.0000000000000000     
  -18.719999999999999          0.0000000000000000     
  -18.660000000000000          0.0000000000000000     
  -18.600000000000001          0.0000000000000000     
  -18.539999999999999          0.0000000000000000     
  -18.480000000000000          0.0000000000000000     
  -18.420000000000002          0.0000000000000000     
  -18.359999999999999          0.0000000000000000     
  -18.300000000000001          0.0000000000000000     
  -18.240000000000002          0.0000000000000000     
  -18.180000000000000          0.0000000000000000     
  -18.120000000000001          0.0000000000000000     
  -18.060000000000002          0.0000000000000000     
  -18.000000000000000          0.0000000000000000     
  -17.940000000000001          0.0000000000000000     
  -17.879999999999999          0.0000000000000000     
  -17.820000000000000          0.0000000000000000     
  -17.759999999999998          0.0000000000000000     
  -17.699999999999999          0.0000000000000000     
  -17.640000000000001          0.0000000000000000     
  -17.579999999999998          0.0000000000000000     
  -17.520000000000000          0.0000000000000000     
  -17.460000000000001          0.0000000000000000     
  -17.399999999999999          0.0000000000000000     
  -17.340000000000000          0.0000000000000000     
  -17.280000000000001          0.0000000000000000     
  -17.219999999999999          0.0000000000000000     
  -17.160000000000000          0.0000000000000000     
  -17.100000000000001          0.0000000000000000     
  -17.039999999999999          0.0000000000000000     
  -16.980000000000000          0.0000000000000000     
  -16.920000000000002          0.0000000000000000     
  -16.859999999999999          0.0000000000000000     
  -16.800000000000001          0.0000000000000000     
  -16.740000000000002          0.0000000000000000     
  -16.680000000000000          0.0000000000000000     
  -16.620000000000001          0.0000000000000000     
  -16.560000000000002          0.0000000000000000     
  -16.500000000000000          0.0000000000000000     
  -16.440000000000001          0.0000000000000000     
  -16.379999999999999          0.0000000000000000     
  -16.320000000000000          0.0000000000000000     
  -16.260000000000002          0.0000000000000000     
  -16.199999999999999          0.0000000000000000     
  -16.140000000000001          0.0000000000000000     
  -16.079999999999998          0.0000000000000000     
  -16.020000000000000         -7.1818041784373192E-040
  -15.960000000000001         -2.9773380216754929E-039
  -15.900000000000000         -6.1668915035233978E-039
  -15.840000000000000         -1.0588772283703860E-038
  -15.780000000000001         -1.6559466596787114E-038
  -15.720000000000001         -2.3672460645049770E-038
  -15.660000000000000         -3.2021764784167026E-038
  -15.600000000000000         -4.1648201326962765E-038
  -15.540000000000001         -5.2516762668334865E-038
  -15.480000000000000         -6.4491983054408163E-038
  -15.420000000000000         -7.6888649585059537E-038
  -15.359999999999999         -8.9917595013611336E-038
  -15.300000000000001         -1.0306507983186849E-037
  -15.240000000000000         -1.1228461587065060E-037
  -15.180000000000000         -1.1571265140395302E-037
  -15.120000000000001         -1.1141801957464867E-037
  -15.060000000000000         -9.4555302901696427E-038
  -15.000000000000000         -6.8482907951854772E-038
  -14.940000000000000         -3.2243713991774175E-038
  -14.880000000000001          1.4865307774439826E-038
  -14.820000000000000          7.3168311007437204E-038
  -14.760000000000000          1.4246526627864414E-037
  -14.700000000000001          2.2168929426164831E-037
  -14.640000000000001          3.0927332673634288E-037
  -14.580000000000000          4.0258385571330144E-037
  -14.520000000000000          4.9737937316525155E-037
  -14.460000000000001          5.8960009142329133E-037
  -14.400000000000000          6.5422013562862182E-037
  -14.340000000000000          6.6578296647532366E-037
  -14.280000000000001          6.2292017818358271E-037
  -14.220000000000001          5.0887170461997241E-037
  -14.160000000000000          3.1093018938384356E-037
  -14.100000000000000          3.1675262074215942E-038
  -14.040000000000001         -3.1346664522117904E-037
  -13.980000000000000         -7.4325688184459558E-037
  -13.920000000000000         -1.2668910942461681E-036
  -13.860000000000001         -1.8893817795460844E-036
  -13.800000000000001         -2.5929857651483857E-036
  -13.740000000000000         -3.3433997970285546E-036
  -13.680000000000000         -4.1081413425680658E-036
  -13.620000000000001         -4.8633403635242608E-036
  -13.560000000000000         -5.5633965523667126E-036
  -13.500000000000000         -6.0828154014161575E-036
  -13.440000000000001         -6.3399050449375491E-036
  -13.380000000000001         -6.2780875375166406E-036
  -13.320000000000000         -5.8902018543782066E-036
  -13.260000000000000         -5.0927155313763018E-036
  -13.200000000000001         -3.8011553021402588E-036
  -13.140000000000001         -1.9303306381730838E-036
  -13.080000000000000          5.8925358484760238E-037
  -13.020000000000000          3.8304301298343325E-036
  -12.960000000000001          7.8349462440128890E-036
  -12.900000000000000          1.2577129974923228E-035
  -12.840000000000000          1.8019224835153606E-035
  -12.780000000000001          2.4043468620653252E-035
  -12.720000000000001          3.0358521209745463E-035
  -12.660000000000000          3.6779197641043326E-035
  -12.600000000000000          4.2924932239351459E-035
  -12.540000000000001          4.8345012952808262E-035
  -12.480000000000000          5.2497181660799186E-035
  -12.420000000000000          5.4742414981485813E-035
  -12.360000000000001          5.4362178932031507E-035
  -12.300000000000001          5.0573062190885657E-035
  -12.240000000000000          4.2570526827148305E-035
  -12.180000000000000          2.9620923912025284E-035
  -12.120000000000001          1.0976612445485428E-035
  -12.060000000000000         -1.4002801592238950E-035
  -12.000000000000000         -4.5792766072633774E-035
  -11.940000000000001         -8.4634033330574565E-035
  -11.880000000000001         -1.3041145886688081E-034
  -11.820000000000000         -1.8257938875963619E-034
  -11.760000000000000         -2.4005353293086345E-034
  -11.700000000000001         -3.0112278943748022E-034
  -11.640000000000001         -3.6335572737588843E-034
  -11.580000000000000         -4.2360101536155391E-034
  -11.520000000000000         -4.7773225658953684E-034
  -11.460000000000001         -5.2086602551889062E-034
  -11.400000000000000         -5.4726214674526232E-034
  -11.340000000000000         -5.5052133020534098E-034
  -11.280000000000001         -5.2360507599437874E-034
  -11.220000000000001         -4.5913993602480379E-034
  -11.160000000000000         -3.4963710355336430E-034
  -11.100000000000000         -1.8793384758952165E-034
  -11.040000000000001          3.2327933150129508E-035
  -10.980000000000000          3.1612408197225705E-034
  -10.920000000000000          6.6637913775336021E-034
  -10.860000000000001          1.0832302567267316E-033
  -10.800000000000001          1.5632316753644926E-033
  -10.740000000000000          2.0985341288752018E-033
  -10.680000000000000          2.6760919822723427E-033
  -10.620000000000001          3.2768888200814782E-033
  -10.560000000000000          3.8752387622794816E-033
  -10.500000000000000          4.4384468515085461E-033
  -10.440000000000001          4.9265056580546806E-033
  -10.380000000000001          5.2921900160907270E-033
  -10.320000000000000          5.4817553502240013E-033
  -10.260000000000000          5.4357712447169818E-033
  -10.200000000000001          5.0907686815592837E-033
  -10.140000000000001          4.3814624431792089E-033
  -10.080000000000000          3.2436606973515646E-033
  -10.020000000000001          1.6178927210312434E-033
  -9.9600000000000009         -5.4624177759429701E-034
  -9.9000000000000004         -3.2850486659991909E-033
  -9.8399999999999999         -6.6151071466248106E-033
  -9.7800000000000011         -1.0527175609963329E-032
  -9.7200000000000006         -1.4979813532729973E-032
  -9.6600000000000001         -1.9892984275045325E-032
  -9.6000000000000014         -2.5141942415597671E-032
  -9.5400000000000009         -3.0551803515406476E-032
  -9.4800000000000004         -3.5893221521762702E-032
  -9.4199999999999999         -4.0879702671451195E-032
  -9.3600000000000012         -4.5167075667393023E-032
  -9.3000000000000007         -4.8355707508729899E-032
  -9.2400000000000002         -4.9996027791867469E-032
  -9.1799999999999997         -4.9597936054093839E-032
  -9.1200000000000010         -4.6644595727504176E-032
  -9.0600000000000005         -4.0611002268137620E-032
  -9.0000000000000000         -3.0987649863570702E-032
  -8.9400000000000013         -1.7309350311093371E-032
  -8.8800000000000008          8.1088291175696061E-034
  -8.8200000000000003          2.3643296547441295E-032
  -8.7599999999999998          5.1298978962501808E-032
  -8.7000000000000011          8.3684575964243539E-032
  -8.6400000000000006          1.2045565890418938E-031
  -8.5800000000000001          1.6097066849713614E-031
  -8.5200000000000014          2.0424773826931466E-031
  -8.4600000000000009          2.4892718947359100E-031
  -8.4000000000000004          2.9324274862333173E-031
  -8.3399999999999999          3.3500516302470988E-031
  -8.2800000000000011          3.7160154100191179E-031
  -8.2200000000000006          4.0001468901818667E-031
  -8.1600000000000001          4.1686598046750167E-031
  -8.1000000000000014          4.1848530256914074E-031
  -8.0400000000000009          4.0101130943268543E-031
  -7.9800000000000004          3.6052483787192450E-031
  -7.9200000000000017          2.9321601043660245E-031
  -7.8599999999999994          1.9558645401854191E-031
  -7.8000000000000007          6.4685023423141727E-032
  -7.7400000000000020         -1.0162655172007215E-031
  -7.6799999999999997         -3.0438240815492810E-031
  -7.6200000000000010         -5.4320334217312093E-031
  -7.5600000000000023         -8.1597992651574938E-031
  -7.5000000000000000         -1.1185602878270262E-030
  -7.4400000000000013         -1.4444574013081172E-030
  -7.3799999999999990         -1.7845939501221063E-030
  -7.3200000000000003         -2.1271049783795655E-030
  -7.2600000000000016         -2.4572196904602649E-030
  -7.1999999999999993         -2.7572451932974841E-030
  -7.1400000000000006         -3.0066781391831852E-030
  -7.0800000000000018         -3.1824652941601367E-030
  -7.0199999999999996         -3.2594363359686461E-030
  -6.9600000000000009         -3.2109290477047581E-030
  -6.9000000000000021         -3.0096197742996506E-030
  -6.8399999999999999         -2.6285720022218320E-030
  -6.7800000000000011         -2.0425009610243842E-030
  -6.7199999999999989         -1.2292529818704087E-030
  -6.6600000000000001         -1.7147709113299379E-031
  -6.6000000000000014          1.1415413230408858E-030
  -6.5399999999999991          2.7119218627536158E-030
  -6.4800000000000004          4.5311715099648343E-030
  -6.4200000000000017          6.5781746214074961E-030
  -6.3599999999999994          8.8172833929708773E-030
  -6.3000000000000007          1.1196609802011909E-029
  -6.2400000000000020          1.3646635988126335E-029
  -6.1799999999999997          1.6079271144411304E-029
  -6.1200000000000010          1.8387483387814380E-029
  -6.0600000000000023          2.0445668760356799E-029
  -6.0000000000000000          2.2110864204442653E-029
  -5.9400000000000013          2.3224962316634646E-029
  -5.8799999999999990          2.3618038288583157E-029
  -5.8200000000000003          2.3112881017990008E-029
  -5.7600000000000016          2.1530796577813590E-029
  -5.6999999999999993          1.8698718542459540E-029
  -5.6400000000000006          1.4457592577895941E-029
  -5.5800000000000018          8.6719653041987420E-030
  -5.5199999999999996          1.2406261383766482E-030
  -5.4600000000000009         -7.8919087157362880E-030
  -5.4000000000000021         -1.8723365753943205E-029
  -5.3399999999999999         -3.1181539598606628E-029
  -5.2800000000000011         -4.5112385707097446E-029
  -5.2200000000000024         -6.0268984442266456E-029
  -5.1600000000000001         -7.6301978433862060E-029
  -5.1000000000000014         -9.2752128036054837E-029
  -5.0399999999999991         -1.0904582144719058E-028
  -4.9800000000000004         -1.2449418610560280E-028
  -4.9200000000000017         -1.3829670894411842E-028
  -4.8599999999999994         -1.4955002233579981E-028
  -4.8000000000000007         -1.5726260633134903E-028
  -4.7400000000000020         -1.6037602039306883E-028
  -4.6799999999999997         -1.5779310529159432E-028
  -4.6200000000000010         -1.4841345954402265E-028
  -4.5600000000000023         -1.3117618326442545E-028
  -4.5000000000000000         -1.0510977216546238E-028
  -4.4400000000000013         -6.9388532642975577E-029
  -4.3799999999999990         -2.3394575222576842E-029
  -4.3200000000000003          3.3215747407837988E-029
  -4.2600000000000016          1.0044304022767592E-028
  -4.1999999999999993          1.7787543177867379E-028
  -4.1400000000000006          2.6462145611794106E-028
  -4.0800000000000018          3.5924820034238277E-028
  -4.0199999999999996          4.5972805472076537E-028
  -3.9600000000000009          5.6339775821575593E-028
  -3.9000000000000021          6.6693394289913152E-028
  -3.8399999999999999          7.6634905907953496E-028
  -3.7800000000000011          8.5701175281752976E-028
  -3.7200000000000024          9.3369594950329423E-028
  -3.6600000000000001          9.9066208804399702E-028
  -3.6000000000000014          1.0217731591432325E-027
  -3.5399999999999991          1.0206487089580934E-027
  -3.4800000000000004          9.8085787100422913E-028
  -3.4200000000000017          8.9615088318299639E-028
  -3.3599999999999994          7.6072865225101702E-028
  -3.3000000000000007          5.6954732005657603E-028
  -3.2400000000000020          3.1865269732027524E-028
  -3.1799999999999997          5.5374217854919287E-030
  -3.1200000000000010         -3.7048666257114316E-028
  -3.0600000000000023         -8.0791323323635521E-028
  -3.0000000000000000         -1.3026775735147661E-027
  -2.9400000000000013         -1.8478158622810984E-027
  -2.8800000000000026         -2.4331690125702559E-027
  -2.8200000000000003         -3.0451467800949904E-027
  -2.7600000000000016         -3.6665736331340803E-027
  -2.6999999999999993         -4.2766370298811170E-027
  -2.6400000000000006         -4.8509574542659963E-027
  -2.5800000000000018         -5.3618011638166112E-027
  -2.5199999999999996         -5.7784551395918709E-027
  -2.4600000000000009         -6.0677765952102843E-027
  -2.4000000000000021         -6.1949338452290115E-027
  -2.3399999999999999         -6.1243418563845900E-027
  -2.2800000000000011         -5.8207977387997277E-027
  -2.2200000000000024         -5.2508100509249405E-027
  -2.1600000000000001         -4.3841097719059536E-027
  -2.1000000000000014         -3.1953197091727848E-027
  -2.0399999999999991         -1.6657573473180264E-027
  -1.9800000000000004          2.1467648608777579E-028
  -1.9200000000000017          2.4455709606732888E-027
  -1.8599999999999994          5.0140996539618898E-027
  -1.8000000000000007          7.8932073035574757E-027
  -1.7400000000000020          1.1039979941218896E-026
  -1.6799999999999997          1.4394265552379195E-026
  -1.6200000000000010          1.7877658370152311E-026
  -1.5600000000000023          2.1392937444769473E-026
  -1.5000000000000000          2.4824053120757636E-026
  -1.4400000000000013          2.8036774026648044E-026
  -1.3800000000000026          3.0880064661827311E-026
  -1.3200000000000003          3.3188290447656577E-026
  -1.2600000000000016          3.4784313966087453E-026
  -1.1999999999999993          3.5483524174685313E-026
  -1.1400000000000006          3.5098831986117034E-026
  -1.0800000000000018          3.3446609846356711E-026
  -1.0199999999999996          3.0353561292213874E-026
 -0.96000000000000085          2.5664406396483939E-026
 -0.90000000000000213          1.9250316840755366E-026
 -0.83999999999999986          1.1017892763538249E-026
 -0.78000000000000114          9.1849408519024297E-028
 -0.72000000000000242         -1.1042341019796572E-026
 -0.66000000000000014         -2.4795659742525913E-026
 -0.60000000000000142         -4.0200432220245576E-026
 -0.53999999999999915         -5.7035809540911216E-026
 -0.48000000000000043         -7.4994712544790866E-026
 -0.42000000000000171         -9.3679219228259936E-026
 -0.35999999999999943         -1.1259818169845661E-025
 -0.30000000000000071         -1.3116752403625063E-025
 -0.24000000000000199         -1.4871365351558660E-025
 -0.17999999999999972         -1.6448038034044645E-025
 -0.12000000000000099         -1.7763975944494309E-025
  -6.0000000000002274E-002    -1.8730702983441362E-025
   0.0000000000000000         -1.9255993082285156E-025
   5.9999999999998721E-002    -1.9246245902478494E-025
  0.11999999999999744         -1.8609299024171952E-025
  0.17999999999999972         -1.7257661127325936E-025
  0.23999999999999844         -1.5112121759157932E-025
  0.30000000000000071         -1.2105691661782580E-025
  0.35999999999999943         -8.1877983492906631E-026
  0.41999999999999815         -3.3286352911616170E-026
  0.48000000000000043          2.4764479928054947E-026
  0.53999999999999915          9.2026342677665547E-026
  0.59999999999999787          1.6791579019273153E-025
  0.66000000000000014          2.5147753856342612E-025
  0.71999999999999886          3.4135378626638151E-025
  0.77999999999999758          4.3576146965032188E-025
  0.83999999999999986          5.3247913712863277E-025
  0.89999999999999858          6.2884574272177890E-025
  0.96000000000000085          7.2177289072351567E-025
   1.0199999999999996          8.0777251322201901E-025
   1.0799999999999983          8.8300147826030210E-025
   1.1400000000000006          9.4332450953260916E-025
   1.1999999999999993          9.8439600774511954E-025
   1.2599999999999980          1.0017612696771544E-024
   1.3200000000000003          9.9097739840993457E-025
   1.3799999999999990          9.4775247350858880E-025
   1.4399999999999977          8.6810218009686347E-025
   1.5000000000000000          7.4852112792763621E-025
   1.5599999999999987          5.8616680381544975E-025
   1.6199999999999974          3.7905080778397331E-025
   1.6799999999999997          1.2623494307763515E-025
   1.7399999999999984         -1.7197541313232230E-025
   1.8000000000000007         -5.1384531523021005E-025
   1.8599999999999994         -8.9603931591005197E-025
   1.9199999999999982         -1.3134725254592937E-024
   1.9800000000000004         -1.7591917945974785E-024
   2.0399999999999991         -2.2242952500771534E-024
   2.0999999999999979         -2.6978978333441248E-024
   2.1600000000000001         -3.1671509078162003E-024
   2.2199999999999989         -3.6173249846699675E-024
   2.2799999999999976         -4.0319585630241615E-024
   2.3399999999999999         -4.3930840634932017E-024
   2.3999999999999986         -4.6815304521628232E-024
   2.4599999999999973         -4.8773079851456980E-024
   2.5199999999999996         -4.9600739605886332E-024
   2.5799999999999983         -4.9096803703553309E-024
   2.6400000000000006         -4.7067953217677320E-024
   2.6999999999999993         -4.3335946304093158E-024
   2.7599999999999980         -3.7745107003849045E-024
   2.8200000000000003         -3.0170282375447209E-024
   2.8799999999999990         -2.0525058413569039E-024
   2.9399999999999977         -8.7700839485655932E-025
   3.0000000000000000          5.0787675564001974E-025
   3.0599999999999987          2.0942616320590939E-024
   3.1199999999999974          3.8672495819070863E-024
   3.1799999999999997          5.8043251326051163E-024
   3.2399999999999984          7.8748732692989058E-024
   3.3000000000000007          1.0039862403755889E-023
   3.3599999999999994          1.2251721533242801E-023
   3.4199999999999982          1.4454444427613023E-023
   3.4800000000000004          1.6583944542701486E-023
   3.5399999999999991          1.8568697333573008E-023
   3.5999999999999979          2.0330681843999454E-023
   3.6600000000000001          2.1786636782310801E-023
   3.7199999999999989          2.2849651114906208E-023
   3.7799999999999976          2.3431077768722624E-023
   3.8399999999999999          2.3442772434907947E-023
   3.8999999999999986          2.2799627150311093E-023
   3.9599999999999973          2.1422391836313456E-023
   4.0199999999999996          1.9240710852562367E-023
   4.0799999999999983          1.6196353001427243E-023
   4.1400000000000006          1.2246558700937821E-023
   4.1999999999999993          7.3674205661822718E-024
   4.2599999999999980          1.5572173885878783E-024
   4.3200000000000003         -5.1603993734886624E-024
   4.3799999999999990         -1.2733459162317884E-023
   4.4399999999999977         -2.1079119457440002E-023
   4.5000000000000000         -3.0081573928218794E-023
   4.5599999999999987         -3.9590602039767561E-023
   4.6199999999999974         -4.9420822561120007E-023
   4.6799999999999997         -5.9351819390981567E-023
   4.7399999999999984         -6.9129226700121311E-023
   4.7999999999999972         -7.8466876602999625E-023
   4.8599999999999994         -8.7050092741230080E-023
   4.9199999999999982         -9.4540200581947773E-023
   4.9800000000000004         -1.0058028532979378E-022
   5.0399999999999991         -1.0480223131382972E-022
   5.0999999999999979         -1.0683498702605823E-022
   5.1600000000000001         -1.0631402449606693E-022
   5.2199999999999989         -1.0289191023624862E-022
   5.2799999999999976         -9.6249830905930273E-023
   5.3399999999999999         -8.6109878162694229E-023
   5.3999999999999986         -7.2247914281011731E-023
   5.4599999999999973         -5.4506764453525494E-023
   5.5199999999999996         -3.2809351603658563E-023
   5.5799999999999983         -7.1714941988767268E-024
   5.6400000000000006          2.2286029731474672E-023
   5.6999999999999993          5.5326525963890665E-023
   5.7599999999999980          9.1588070825391518E-023
   5.8200000000000003          1.3057612889052009E-022
   5.8799999999999990          1.7165866610332833E-022
   5.9399999999999977          2.1406421674166000E-022
   6.0000000000000000          2.5688317170668162E-022
   6.0599999999999987          2.9907284912920331E-022
   6.1199999999999974          3.3946658449818510E-022
   6.1799999999999997          3.7678716245231534E-022
   6.2399999999999984          4.0966477362073586E-022
   6.2999999999999972          4.3665967870386516E-022
   6.3599999999999994          4.5628941839540200E-022
   6.4199999999999982          4.6706070416440250E-022
   6.4800000000000004          4.6750560555419769E-022
   6.5399999999999991          4.5622168690103337E-022
   6.5999999999999979          4.3191560729022983E-022
   6.6600000000000001          3.9344958679331714E-022
   6.7199999999999989          3.3988972313554054E-022
   6.7799999999999976          2.7055536873986264E-022
   6.8399999999999999          1.8506870594777695E-022
   6.8999999999999986          8.3402614364742005E-023
   6.9599999999999973         -3.4073663944257765E-023
   7.0199999999999996         -1.6655330773455472E-022
   7.0799999999999983         -3.1275590564241966E-022
   7.1400000000000006         -4.7089879863315759E-022
   7.1999999999999993         -6.3867706565915935E-022
   7.2599999999999980         -8.1325361644535355E-022
   7.3200000000000003         -9.9126114283491742E-022
   7.3799999999999990         -1.1688171158374908E-021
   7.4399999999999977         -1.3415528269676946E-021
   7.5000000000000000         -1.5046580234267659E-021
   7.5599999999999987         -1.6529412628179411E-021
   7.6199999999999974         -1.7809069852758283E-021
   7.6799999999999997         -1.8828494809353519E-021
   7.7399999999999984         -1.9529624885838778E-021
   7.7999999999999972         -1.9854655218235948E-021
   7.8599999999999994         -1.9747437029093762E-021
   7.9199999999999982         -1.9155019785604922E-021
   7.9800000000000004         -1.8029289350737264E-021
   8.0399999999999991         -1.6328699899746690E-021
   8.1000000000000014         -1.4020052111967811E-021
   8.1599999999999966         -1.1080298163329232E-021
   8.2199999999999989         -7.4983149179474708E-022
   8.2800000000000011         -3.2766214780647753E-022
   8.3399999999999963          1.5670272585679144E-022
   8.3999999999999986          6.9981941663861483E-022
   8.4600000000000009          1.2964548708838938E-021
   8.5199999999999960          1.9394901551597158E-021
   8.5799999999999983          2.6198576519760578E-021
   8.6400000000000006          3.3265139498608276E-021