  -24.000000000000000          0.0000000000000000     
  -23.940000000000001          0.0000000000000000     
  -23.879999999999999          0.0000000000000000     
  -23.820000000000000          0.0000000000000000     
  -23.760000000000002          0.0000000000000000     
  -23.699999999999999          0.0000000000000000     
  -23.640000000000001          0.0000000000000000     
  -23.579999999999998          0.0000000000000000     
  -23.520000000000000          0.0000000000000000     
  -23.460000000000001          0.0000000000000000     
  -23.399999999999999          0.0000000000000000     
  -23.340000000000000          0.0000000000000000     
  -23.280000000000001          0.0000000000000000     
  -23.219999999999999          0.0000000000000000     
  -23.160000000000000          0.0000000000000000     
  -23.100000000000001          0.0000000000000000     
  -23.039999999999999          0.0000000000000000     
  -22.980000000000000          0.0000000000000000     
  -22.920000000000002          0.0000000000000000     
  -22.859999999999999          0.0000000000000000     
  -22.800000000000001          0.0000000000000000     
  -22.739999999999998          0.0000000000000000     
  -22.680000000000000          0.0000000000000000     
  -22.620000000000001          0.0000000000000000     
  -22.559999999999999          0.0000000000000000     
  -22.500000000000000          0.0000000000000000     
  -22.440000000000001          0.0000000000000000     
  -22.379999999999999          0.0000000000000000     
  -22.320000000000000          0.0000000000000000     
  -22.260000000000002          0.0000000000000000     
  -22.199999999999999          0.0000000000000000     
  -22.140000000000001          0.0000000000000000     
  -22.079999999999998          0.0000000000000000     
  -22.020000000000000          0.0000000000000000     
  -21.960000000000001          0.0000000000000000     
  -21.899999999999999          0.0000000000000000     
  -21.840000000000000          0.0000000000000000     
  -21.780000000000001          0.0000000000000000     
  -21.719999999999999          0.0000000000000000     
  -21.660000000000000          0.0000000000000000     
  -21.600000000000001          0.0000000000000000     
  -21.539999999999999          0.0000000000000000     
  -21.480000000000000          0.0000000000000000     
  -21.420000000000002          0.0000000000000000     
  -21.359999999999999          0.0000000000000000     
  -21.300000000000001          0.0000000000000000     
  -21.240000000000002          0.0000000000000000     
  -21.180000000000000          0.0000000000000000     
  -21.120000000000001          0.0000000000000000     
  -21.059999999999999          0.0000000000000000     
  -21.000000000000000          0.0000000000000000     
  -20.940000000000001          0.0000000000000000     
  -20.879999999999999          0.0000000000000000     
  -20.820000000000000          0.0000000000000000     
  -20.760000000000002          0.0000000000000000     
  -20.699999999999999          0.0000000000000000     
  -20.640000000000001          0.0000000000000000     
  -20.579999999999998          0.0000000000000000     
  -20.520000000000000          0.0000000000000000     
  -20.460000000000001          0.0000000000000000     
  -20.399999999999999          0.0000000000000000     
  -20.340000000000000          0.0000000000000000     
  -20.280000000000001          0.0000000000000000     
  -20.219999999999999          0.0000000000000000     
  -20.160000000000000          0.0000000000000000     
  -20.100000000000001          0.0000000000000000     
  -20.039999999999999          0.0000000000000000     
  -19.980000000000000          0.0000000000000000     
  -19.920000000000002          0.0000000000000000     
  -19.859999999999999          0.0000000000000000     
  -19.800000000000001          0.0000000000000000     
  -19.740000000000002          0.0000000000000000     
  -19.680000000000000          0.0000000000000000     
  -19.620000000000001          0.0000000000000000     
  -19.560000000000002          0.0000000000000000     
  -19.500000000000000          0.0000000000000000     
  -19.440000000000001          0.0000000000000000     
  -19.379999999999999          0.0000000000000000     
  -19.320000000000000          0.0000000000000000     
  -19.259999999999998          0.0000000000000000     
  -19.199999999999999          0.0000000000000000     
  -19.140000000000001          0.0000000000000000     
  -19.079999999999998          0.0000000000000000     
  -19.020000000000000          0.0000000000000000     
  -18.960000000000001          0.0000000000000000     
  -18.899999999999999          0.0000000000000000     
  -18.840000000000000          0.0000000000000000     
  -18.780000000000001          0.0000000000000000     
  -18.719999999999999          0.0000000000000000     
  -18.660000000000000          0.0000000000000000     
  -18.600000000000001          0.0000000000000000     
  -18.539999999999999          0.0000000000000000     
  -18.480000000000000          0.0000000000000000     
  -18.420000000000002          0.0000000000000000     
  -18.359999999999999          0.0000000000000000     
  -18.300000000000001          0.0000000000000000     
  -18.240000000000002          0.0000000000000000     
  -18.180000000000000          0.0000000000000000     
  -18.120000000000001          0.0000000000000000     
  -18.060000000000002          0.0000000000000000     
  -18.000000000000000          0.0000000000000000     
  -17.940000000000001          0.0000000000000000     
  -17.879999999999999          0.0000000000000000     
  -17.820000000000000          0.0000000000000000     
  -17.759999999999998          0.0000000000000000     
  -17.699999999999999          0.0000000000000000     
  -17.640000000000001          0.0000000000000000     
  -17.579999999999998          0.0000000000000000     
  -17.520000000000000          0.0000000000000000     
  -17.460000000000001          0.0000000000000000     
  -17.399999999999999          0.0000000000000000     
  -17.340000000000000          0.0000000000000000     
  -17.280000000000001          0.0000000000000000     
  -17.219999999999999          0.0000000000000000     
  -17.160000000000000          0.0000000000000000     
  -17.100000000000001          0.0000000000000000     
  -17.039999999999999          0.0000000000000000     
  -16.980000000000000          0.0000000000000000     
  -16.920000000000002          0.0000000000000000     
  -16.859999999999999          0.0000000000000000     
  -16.800000000000001          0.0000000000000000     
  -16.740000000000002          0.0000000000000000     
  -16.680000000000000          0.0000000000000000     
  -16.620000000000001          0.0000000000000000     
  -16.560000000000002          0.0000000000000000     
  -16.500000000000000          0.0000000000000000     
  -16.440000000000001          0.0000000000000000     
  -16.379999999999999          0.0000000000000000     
  -16.320000000000000          0.0000000000000000     
  -16.260000000000002          0.0000000000000000     
  -16.199999999999999          0.0000000000000000     
  -16.140000000000001          0.0000000000000000     
  -16.079999999999998          0.0000000000000000     
  -16.020000000000000          0.0000000000000000     
  -15.960000000000001          0.0000000000000000     
  -15.900000000000000          0.0000000000000000     
  -15.840000000000000          0.0000000000000000     
  -15.780000000000001          0.0000000000000000     
  -15.720000000000001          0.0000000000000000     
  -15.660000000000000          0.0000000000000000     
  -15.600000000000000          0.0000000000000000     
  -15.540000000000001          0.0000000000000000     
  -15.480000000000000          0.0000000000000000     
  -15.420000000000000          0.0000000000000000     
  -15.359999999999999          0.0000000000000000     
  -15.300000000000001          0.0000000000000000     
  -15.240000000000000          0.0000000000000000     
  -15.180000000000000          0.0000000000000000     
  -15.120000000000001          0.0000000000000000     
  -15.060000000000000          0.0000000000000000     
  -15.000000000000000          0.0000000000000000     
  -14.940000000000000          0.0000000000000000     
  -14.880000000000001          0.0000000000000000     
  -14.820000000000000          0.0000000000000000     
  -14.760000000000000          0.0000000000000000     
  -14.700000000000001          0.0000000000000000     
  -14.640000000000001          0.0000000000000000     
  -14.580000000000000          0.0000000000000000     
  -14.520000000000000          0.0000000000000000     
  -14.460000000000001          0.0000000000000000     
  -14.400000000000000          0.0000000000000000     
  -14.340000000000000          0.0000000000000000     
  -14.280000000000001          0.0000000000000000     
  -14.220000000000001          0.0000000000000000     
  -14.160000000000000          0.0000000000000000     
  -14.100000000000000          0.0000000000000000     
  -14.040000000000001          0.0000000000000000     
  -13.980000000000000          0.0000000000000000     
  -13.920000000000000          0.0000000000000000     
  -13.860000000000001          0.0000000000000000     
  -13.800000000000001          0.0000000000000000     
  -13.740000000000000          0.0000000000000000     
  -13.680000000000000          0.0000000000000000     
  -13.620000000000001          0.0000000000000000     
  -13.560000000000000          0.0000000000000000     
  -13.500000000000000          0.0000000000000000     
  -13.440000000000001          0.0000000000000000     
  -13.380000000000001          0.0000000000000000     
  -13.320000000000000          0.0000000000000000     
  -13.260000000000000          0.0000000000000000     
  -13.200000000000001          0.0000000000000000     
  -13.140000000000001          0.0000000000000000     
  -13.080000000000000          0.0000000000000000     
  -13.020000000000000          0.0000000000000000     
  -12.960000000000001          0.0000000000000000     
  -12.900000000000000          0.0000000000000000     
  -12.840000000000000          0.0000000000000000     
  -12.780000000000001          0.0000000000000000     
  -12.720000000000001          0.0000000000000000     
  -12.660000000000000          0.0000000000000000     
  -12.600000000000000          0.0000000000000000     
  -12.540000000000001          0.0000000000000000     
  -12.480000000000000          0.0000000000000000     
  -12.420000000000000          0.0000000000000000     
  -12.360000000000001          0.0000000000000000     
  -12.300000000000001          0.0000000000000000     
  -12.240000000000000          0.0000000000000000     
  -12.180000000000000          0.0000000000000000     
  -12.120000000000001          2.6978420822602385E-040
  -12.060000000000000          6.7175780237156214E-040
  -12.000000000000000          1.2113756111836328E-039
  -11.940000000000001          1.9334987070914131E-039
  -11.880000000000001          2.8753015964694790E-039
  -11.820000000000000          3.9722833205578270E-039
  -11.760000000000000          5.1621386287983701E-039
  -11.700000000000001          6.3961555796883038E-039
  -11.640000000000001          7.6301725305782375E-039
  -11.580000000000000          8.7776859613261096E-039
  -11.520000000000000          9.7021597368399832E-039
  -11.460000000000001          1.0012333716885753E-038
  -11.400000000000000          9.8272675577425762E-039
  -11.340000000000000          9.2887558720065350E-039
  -11.280000000000001          7.2093177285646470E-039
  -11.220000000000001          3.4291799910930163E-039
  -11.160000000000000         -1.8593248194214460E-039
  -11.100000000000000         -8.6048513882363266E-039
  -11.040000000000001         -1.5811173385260927E-038
  -10.980000000000000         -2.3414495963142210E-038
  -10.920000000000000         -3.1163640735120280E-038
  -10.860000000000001         -3.9989933854959678E-038
  -10.800000000000001         -4.9796098251393458E-038
  -10.740000000000000         -5.9281423365902032E-038
  -10.680000000000000         -6.8229484600914037E-038
  -10.620000000000001         -7.4847749648497425E-038
  -10.560000000000000         -7.8216522513529993E-038
  -10.500000000000000         -7.7598918694975601E-038
  -10.440000000000001         -7.3890311956108757E-038
  -10.380000000000001         -6.6044319513354736E-038
  -10.320000000000000         -5.4762839316856559E-038
  -10.260000000000000         -4.0058773571830419E-038
  -10.200000000000001         -2.1579799866423961E-038
  -10.140000000000001          1.4377314503702819E-039
  -10.080000000000000          3.2068845920477158E-038
  -10.020000000000001          7.1410849641829183E-038
  -9.9600000000000009          1.1754965937786799E-037
  -9.9000000000000004          1.6426357447566736E-037
  -9.8399999999999999          2.0916052606072724E-037
  -9.7800000000000011          2.4881051577962372E-037
  -9.7200000000000006          2.7932551576149985E-037
  -9.6600000000000001          2.9649020946181260E-037
  -9.6000000000000014          2.9935730557754524E-037
  -9.5400000000000009          2.8381390868741448E-037
  -9.4800000000000004          2.4859156962820876E-037
  -9.4199999999999999          1.9250384586305308E-037
  -9.3600000000000012          1.1367143752714100E-037
  -9.3000000000000007          1.4055636434108224E-038
  -9.2400000000000002         -1.0677786332077039E-037
  -9.1799999999999997         -2.5080987378896743E-037
  -9.1200000000000010         -4.1555311333760611E-037
  -9.0600000000000005         -5.8940402271203039E-037
  -9.0000000000000000         -7.6859198114288575E-037
  -8.9400000000000013         -9.4607775833683325E-037
  -8.8800000000000008         -1.1156507421756449E-036
  -8.8200000000000003         -1.2681355351109464E-036
  -8.7599999999999998         -1.3816603698825918E-036
  -8.7000000000000011         -1.4415737637917329E-036
  -8.6400000000000006         -1.4287325145625012E-036
  -8.5800000000000001         -1.3333610853551265E-036
  -8.5200000000000014         -1.1403886489030671E-036
  -8.4600000000000009         -8.2256426640174308E-037
  -8.4000000000000004         -3.5883011312420515E-037
  -8.3399999999999999          2.6091332254689091E-037
  -8.2800000000000011          1.0535926939267487E-036
  -8.2200000000000006          2.0320743376767576E-036
  -8.1600000000000001          3.1836913138023665E-036
  -8.1000000000000014          4.4740520793573769E-036
  -8.0400000000000009          5.8831329455771943E-036
  -7.9800000000000004          7.3869789679438117E-036
  -7.9200000000000017          8.9344068966249229E-036
  -7.8599999999999994          1.0444662396883672E-035
  -7.8000000000000007          1.1832413154450750E-035
  -7.7400000000000020          1.2985856591935932E-035
  -7.6799999999999997          1.3798907441006945E-035
  -7.6200000000000010          1.4152308431336194E-035
  -7.5600000000000023          1.3909847627511257E-035
  -7.5000000000000000          1.2942901347939551E-035
  -7.4400000000000013          1.1053108903129387E-035
  -7.3799999999999990          8.0879359291414562E-036
  -7.3200000000000003          3.8839096683882476E-036
  -7.2600000000000016         -1.6807082009682771E-036
  -7.1999999999999993         -8.6623767981789861E-036
  -7.1400000000000006         -1.7062569177020262E-035
  -7.0800000000000018         -2.6830178646560659E-035
  -7.0199999999999996         -3.7840842543262264E-035
  -6.9600000000000009         -4.9793864872405525E-035
  -6.9000000000000021         -6.2386519117577154E-035
  -6.8399999999999999         -7.5177221943632337E-035
  -6.7800000000000011         -8.7585794877260231E-035
  -6.7199999999999989         -9.8856744377095771E-035
  -6.6600000000000001         -1.0812167125550937E-034
  -6.6000000000000014         -1.1441155845604933E-034
  -6.5399999999999991         -1.1662356435314011E-034
  -6.4800000000000004         -1.1358033004283328E-034
  -6.4200000000000017         -1.0405749713637454E-034
  -6.3599999999999994         -8.6822881237651920E-035
  -6.3000000000000007         -6.0708348590657847E-035
  -6.2400000000000020         -2.4654324918321319E-035
  -6.1799999999999997          2.2165708623529382E-035
  -6.1200000000000010          8.0292590656244107E-035
  -6.0600000000000023          1.4984374713770919E-034
  -6.0000000000000000          2.3046226122633680E-034
  -5.9400000000000013          3.2118729349625974E-034
  -5.8799999999999990          4.2034862646303226E-034
  -5.8200000000000003          5.2543764709171253E-034
  -5.7600000000000016          6.3307088074441753E-034
  -5.6999999999999993          7.3887820535933125E-034
  -5.6400000000000006          8.3753615230170033E-034
  -5.5800000000000018          9.2275692792279065E-034
  -5.5199999999999996          9.8731103450379878E-034
  -5.4600000000000009          1.0231616273095131E-033
  -5.4000000000000021          1.0216266574607224E-033
  -5.3399999999999999          9.7361500196171878E-034
  -5.2800000000000011          8.6992490723706648E-034
  -5.2200000000000024          7.0165059305619565E-034
  -5.1600000000000001          4.6065265168452832E-034
  -5.1000000000000014          1.4007720951053854E-034
  -5.0399999999999991         -2.6499249488634012E-034
  -4.9800000000000004         -7.5690718131998521E-034
  -4.9200000000000017         -1.3346874464873975E-033
  -4.8599999999999994         -1.9933515519018753E-033
  -4.8000000000000007         -2.7231687315012395E-033
  -4.7400000000000020         -3.5089933170897966E-033
  -4.6799999999999997         -4.3296354085393590E-033
  -4.6200000000000010         -5.1574307599008232E-033
  -4.5600000000000023         -5.9579383276918552E-033
  -4.5000000000000000         -6.6898746208603398E-033
  -4.4400000000000013         -7.3053328122533646E-033
  -4.3799999999999990         -7.7503273621444736E-033
  -4.3200000000000003         -7.9657745262753229E-033
  -4.2600000000000016         -7.8888280671809646E-033
  -4.1999999999999993         -7.4547436787947023E-033
  -4.1400000000000006         -6.5992297151613123E-033
  -4.0800000000000018         -5.2612934907622834E-033
  -4.0199999999999996         -3.3865914274559030E-033
  -3.9600000000000009         -9.3123945239938664E-034
  -3.9000000000000021          2.1339733571135932E-033
  -3.8399999999999999          5.8190691070964015E-033
  -3.7800000000000011          1.0110114614831306E-032
  -3.7200000000000024          1.4964517272848300E-032
  -3.6600000000000001          2.0306401347613593E-032
  -3.6000000000000014          2.6022410634689053E-032
  -3.5399999999999991          3.1958129785134806E-032
  -3.4800000000000004          3.7915460403087638E-032
  -3.4200000000000017          4.3651217528958411E-032
  -3.3599999999999994          4.8877314124333781E-032
  -3.3000000000000007          5.3262844025274031E-032
  -3.2400000000000020          5.6438367129133332E-032
  -3.1799999999999997          5.8002724832332767E-032
  -3.1200000000000010          5.7532621015709748E-032
  -3.0600000000000023          5.4595182165659151E-032
  -3.0000000000000000          4.8763580456977032E-032
  -2.9400000000000013          3.9635795225054741E-032
  -2.8800000000000026          2.6856321446503721E-032
  -2.8200000000000003          1.0140633251639331E-032
  -2.7600000000000016         -1.0697989855502967E-032
  -2.6999999999999993         -3.5719984005659610E-032
  -2.6400000000000006         -6.4830024197099884E-032
  -2.5800000000000018         -9.7747626003282366E-032
  -2.5199999999999996         -1.3397899249659254E-031
  -2.4600000000000009         -1.7279147682055371E-031
  -2.4000000000000021         -2.1319224395847062E-031
  -2.3399999999999999         -2.5391285556914958E-031
  -2.2800000000000011         -2.9340159982847663E-031
  -2.2200000000000024         -3.2982548919872413E-031
  -2.1600000000000001         -3.6108372333231167E-031
  -2.1000000000000014         -3.8483460190362176E-031
  -2.0399999999999991         -3.9853753919484459E-031
  -1.9800000000000004         -3.9951152213398501E-031
  -1.9200000000000017         -3.8501084166071455E-031
  -1.8599999999999994         -3.5231954043218759E-031
  -1.8000000000000007         -2.9886340421296548E-031
  -1.7400000000000020         -2.2233957394229801E-031
  -1.6799999999999997         -1.2086231960350942E-031
  -1.6200000000000010          6.8784545135594968E-033
  -1.5600000000000023          1.6144793138506367E-031
  -1.5000000000000000          3.4249210917769008E-031
  -1.4400000000000013          5.4856355011100301E-031
  -1.3800000000000026          7.7695427748087275E-031
  -1.3200000000000003          1.0235429323632308E-030
  -1.2600000000000016          1.2826659289933531E-030
  -1.1999999999999993          1.5470209158237663E-030
  -1.1400000000000006          1.8076141865876816E-030
  -1.0800000000000018          2.0537615471620225E-030
  -1.0199999999999996          2.2731530633252197E-030
 -0.96000000000000085          2.4519930729948164E-030
 -0.90000000000000213          2.5752233064606954E-030
 -0.83999999999999986          2.6268379662727325E-030
 -0.78000000000000114          2.5902964774553789E-030
 -0.72000000000000242          2.4490374370334910E-030
 -0.66000000000000014          2.1870946698086529E-030
 -0.60000000000000142          1.7898116167071951E-030
 -0.53999999999999915          1.2446458798635275E-030
 -0.48000000000000043          5.4205244783493804E-031
 -0.42000000000000171         -3.2357103067419522E-031
 -0.35999999999999943         -1.3529042681545947E-030
 -0.30000000000000071         -2.5407123502462879E-030
 -0.24000000000000199         -3.8748851828106053E-030
 -0.17999999999999972         -5.3355386692507020E-030
 -0.12000000000000099         -6.8942318435091117E-030
  -6.0000000000002274E-002    -8.5133460972647593E-030
   0.0000000000000000         -1.0145681452940985E-029
   5.9999999999998721E-002    -1.1734323055976276E-029
  0.11999999999999744         -1.3212838245709005E-029
  0.17999999999999972         -1.4505853975935421E-029
  0.23999999999999844         -1.5530068717230653E-029
  0.30000000000000071         -1.6195745281423103E-029
  0.35999999999999943         -1.6408715294683010E-029
  0.41999999999999815         -1.6072922064989203E-029
  0.48000000000000043         -1.5093512129398928E-029
  0.53999999999999915         -1.3380463435215248E-029
  0.59999999999999787         -1.0852718973160723E-029
  0.66000000000000014         -7.4427818486286069E-030
  0.71999999999999886         -3.1016785874753906E-030
  0.77999999999999758          2.1958094092380726E-030
  0.83999999999999986          8.4457792654125425E-030
  0.89999999999999858          1.5609881131425837E-029
  0.96000000000000085          2.3610217661049954E-029
   1.0199999999999996          3.2324694850136971E-029
   1.0799999999999983          4.1583070966985913E-029
   1.1400000000000006          5.1163960427224698E-029
   1.1999999999999993          6.0793107259300733E-029
   1.2599999999999980          7.0143137900335376E-029
   1.3200000000000003          7.8835170579099149E-029
   1.3799999999999990          8.6442486883150214E-029
   1.4399999999999977          9.2496538868132477E-029
   1.5000000000000000          9.6495489320105646E-029
   1.5599999999999987          9.7915446317936034E-029
   1.6199999999999974          9.6224538902908718E-029
   1.6799999999999997          9.0899747660099717E-029
   1.7399999999999984          8.1446502754127600E-029
   1.8000000000000007          6.7420821777669770E-029
   1.8599999999999994          4.8453658805617623E-029
   1.9199999999999982          2.4277144538600195E-029
   1.9800000000000004         -5.2480601941538989E-030
   2.0399999999999991         -4.0104766694684221E-029
   2.0999999999999979         -8.0091736515025872E-029
   2.1600000000000001         -1.2479734963388942E-028
   2.2199999999999989         -1.7357583460758638E-028
   2.2799999999999976         -2.2552714016358217E-028
   2.3399999999999999         -2.7948186613804117E-028
   2.3999999999999986         -3.3399251489302819E-028
   2.4599999999999973         -3.8733252280177980E-028
   2.5199999999999996         -4.3750458727698037E-028
   2.5799999999999983         -4.8225928660582610E-028
   2.6400000000000006         -5.1912557546851892E-028
   2.6999999999999993         -5.4545380750154624E-028
   2.7599999999999980         -5.5847225277075298E-028
   2.8200000000000003         -5.5535748034906786E-028
   2.8799999999999990         -5.3331838504689492E-028
   2.9399999999999977         -4.8969426175860497E-028
   3.0000000000000000         -4.2206490739862184E-028
   3.0599999999999987         -3.2837205338039333E-028
   3.1199999999999974         -2.0704978839257247E-028
   3.1799999999999997         -5.7161355515676291E-029
   3.2399999999999984          1.2146138674592859E-028
   3.3000000000000007          3.2807981904522136E-028
   3.3599999999999994          5.6091570817955799E-028
   3.4199999999999982          8.1703045035164106E-028
   3.4800000000000004          1.0922207274274860E-027
   3.5399999999999991          1.3809374881638047E-027
   3.5999999999999979          1.6762347023768549E-027
   3.6600000000000001          1.9697542243265976E-027
   3.7199999999999989          2.2517543313040127E-027
   3.7799999999999976          2.5111861006136020E-027
   3.8399999999999999          2.7358256347376172E-027
   3.8999999999999986          2.9124649089537390E-027
   3.9599999999999973          3.0271667992739780E-027
   4.0199999999999996          3.0655853269474721E-027
   4.0799999999999983          3.0133520715768894E-027
   4.1400000000000006          2.8565278230198842E-027
   4.1999999999999993          2.5821151411957138E-027
   4.2599999999999980          2.1786267637479393E-027
   4.3200000000000003          1.6366985877537724E-027
   4.3799999999999990          9.4973858519474030E-028
   4.4399999999999977          1.1459478372171558E-028
   4.5000000000000000         -8.6777499124239563E-028
   4.5599999999999987         -1.9916521324801178E-027
   4.6199999999999974         -3.2459472269348545E-027
   4.6799999999999997         -4.6136607366369087E-027
   4.7399999999999984         -6.0714356272835472E-027
   4.7999999999999972         -7.5892379131039102E-027
   4.8599999999999994         -9.1301873113213098E-027
   4.9199999999999982         -1.0650578361042145E-026
   4.9800000000000004         -1.2100110301287812E-026
   5.0399999999999991         -1.3422357457848395E-026
   5.0999999999999979         -1.4555506170418816E-026
   5.1600000000000001         -1.5433371553073182E-026
   5.2199999999999989         -1.5986711687093354E-026
   5.2799999999999976         -1.6144848022608805E-026
   5.3399999999999999         -1.5837583444694377E-026
   5.3999999999999986         -1.4997414692748083E-026
   5.4599999999999973         -1.3562014238900481E-026
   5.5199999999999996         -1.1476942564898185E-026
   5.5799999999999983         -8.6985674329891047E-027
   5.6400000000000006         -5.1970998970344788E-027
   5.6999999999999993         -9.5970292115798845E-028
   5.7599999999999980          4.0064262079167718E-027
   5.8200000000000003          9.6710789828116041E-027
   5.8799999999999990          1.5978294398787656E-026
   5.9399999999999977          2.2843950789198361E-026
   6.0000000000000000          3.0153820469300889E-026
   6.0599999999999987          3.7762214668874023E-026
   6.1199999999999974          4.5491367279650332E-026
   6.1799999999999997          5.3131644775994770E-026
   6.2399999999999984          6.0442765238113937E-026
   6.2999999999999972          6.7156078756377743E-026
   6.3599999999999994          7.2978057219872781E-026
   6.4199999999999982          7.7595031011672312E-026
   6.4800000000000004          8.0679292849884975E-026
   6.5399999999999991          8.1896473235152745E-026
   6.5999999999999979          8.0914303819114908E-026
   6.6600000000000001          7.7412624681007664E-026
   6.7199999999999989          7.1094593628928904E-026
   6.7799999999999976          6.1698871795599978E-026
   6.8399999999999999          4.9012703988406329E-026
   6.8999999999999986          3.2885511207476546E-026
   6.9599999999999973          1.3242764661023991E-026
   7.0199999999999996         -9.9002272410974850E-027
   7.0799999999999983         -3.6425043309253943E-026
   7.1400000000000006         -6.6097860215645778E-026
   7.1999999999999993         -9.8558577234672489E-026
   7.2599999999999980         -1.3331199875985075E-025
   7.3200000000000003         -1.6972145578301950E-025
   7.3799999999999990         -2.0700564460879906E-025
   7.4399999999999977         -2.4423893585787810E-025
   7.5000000000000000         -2.8035600617533293E-025
   7.5599999999999987         -3.1416097516144457E-025
   7.6199999999999974         -3.4434161870969249E-025
   7.6799999999999997         -3.6948903550739702E-025
   7.7399999999999984         -3.8812287380471794E-025
   7.7999999999999972         -3.9872225523533299E-025
   7.8599999999999994         -3.9976251313795291E-025
   7.9199999999999982         -3.8975722430279014E-025
   7.9800000000000004         -3.6730551039238136E-025
   8.0399999999999991         -3.3114372037742251E-025
   8.1000000000000014         -2.8020091859920243E-025
   8.1599999999999966         -2.1365701735712313E-025
   8.2199999999999989         -1.3100258313109643E-025
   8.2800000000000011         -3.2098411518984953E-026
   8.3399999999999963          8.2766295548890539E-026
   8.3999999999999986          2.1281920520330538E-025
   8.4600000000000009          3.5675555540919589E-025
   8.5199999999999960          5.1269629477753901E-025
   8.5799999999999983          6.7815628793375467E-025
   8.6400000000000006          8.5002400107905629E-025