  -24.000000000000000          0.0000000000000000     
  -23.940000000000001          0.0000000000000000     
  -23.879999999999999          0.0000000000000000     
  -23.820000000000000          0.0000000000000000     
  -23.760000000000002          0.0000000000000000     
  -23.699999999999999          0.0000000000000000     
  -23.640000000000001          0.0000000000000000     
  -23.579999999999998          0.0000000000000000     
  -23.520000000000000          0.0000000000000000     
  -23.460000000000001          0.0000000000000000     
  -23.399999999999999          0.0000000000000000     
  -23.340000000000000          0.0000000000000000     
  -23.280000000000001          0.0000000000000000     
  -23.219999999999999          0.0000000000000000     
  -23.160000000000000          0.0000000000000000     
  -23.100000000000001          0.0000000000000000     
  -23.039999999999999          0.0000000000000000     
  -22.980000000000000          0.0000000000000000     
  -22.920000000000002          0.0000000000000000     
  -22.859999999999999          0.0000000000000000     
  -22.800000000000001          0.0000000000000000     
  -22.739999999999998          0.0000000000000000     
  -22.680000000000000          0.0000000000000000     
  -22.620000000000001          0.0000000000000000     
  -22.559999999999999          0.0000000000000000     
  -22.500000000000000          0.0000000000000000     
  -22.440000000000001          0.0000000000000000     
  -22.379999999999999          0.0000000000000000     
  -22.320000000000000          0.0000000000000000     
  -22.260000000000002          0.0000000000000000     
  -22.199999999999999          0.0000000000000000     
  -22.140000000000001          0.0000000000000000     
  -22.079999999999998          0.0000000000000000     
  -22.020000000000000          0.0000000000000000     
  -21.960000000000001          0.0000000000000000     
  -21.899999999999999          0.0000000000000000     
  -21.840000000000000          0.0000000000000000     
  -21.780000000000001          0.0000000000000000     
  -21.719999999999999          0.0000000000000000     
  -21.660000000000000          0.0000000000000000     
  -21.600000000000001          0.0000000000000000     
  -21.539999999999999          0.0000000000000000     
  -21.480000000000000          0.0000000000000000     
  -21.420000000000002          0.0000000000000000     
  -21.359999999999999          0.0000000000000000     
  -21.300000000000001          0.0000000000000000     
  -21.240000000000002          0.0000000000000000     
  -21.180000000000000          0.0000000000000000     
  -21.120000000000001          0.0000000000000000     
  -21.059999999999999          0.0000000000000000     
  -21.000000000000000          0.0000000000000000     
  -20.940000000000001          0.0000000000000000     
  -20.879999999999999          0.0000000000000000     
  -20.820000000000000          0.0000000000000000     
  -20.760000000000002          0.0000000000000000     
  -20.699999999999999          0.0000000000000000     
  -20.640000000000001          0.0000000000000000     
  -20.579999999999998          0.0000000000000000     
  -20.520000000000000          0.0000000000000000     
  -20.460000000000001          0.0000000000000000     
  -20.399999999999999          0.0000000000000000     
  -20.340000000000000          0.0000000000000000     
  -20.280000000000001          0.0000000000000000     
  -20.219999999999999          0.0000000000000000     
  -20.160000000000000          0.0000000000000000     
  -20.100000000000001          0.0000000000000000     
  -20.039999999999999          0.0000000000000000     
  -19.980000000000000          0.0000000000000000     
  -19.920000000000002          0.0000000000000000     
  -19.859999999999999          0.0000000000000000     
  -19.800000000000001          0.0000000000000000     
  -19.740000000000002          0.0000000000000000     
  -19.680000000000000          0.0000000000000000     
  -19.620000000000001          0.0000000000000000     
  -19.560000000000002          0.0000000000000000     
  -19.500000000000000          0.0000000000000000     
  -19.440000000000001          0.0000000000000000     
  -19.379999999999999          0.0000000000000000     
  -19.320000000000000          0.0000000000000000     
  -19.259999999999998          0.0000000000000000     
  -19.199999999999999          0.0000000000000000     
  -19.140000000000001          0.0000000000000000     
  -19.079999999999998          0.0000000000000000     
  -19.020000000000000          0.0000000000000000     
  -18.960000000000001          0.0000000000000000     
  -18.899999999999999          0.0000000000000000     
  -18.840000000000000          0.0000000000000000     
  -18.780000000000001          0.0000000000000000     
  -18.719999999999999          0.0000000000000000     
  -18.660000000000000          0.0000000000000000     
  -18.600000000000001          0.0000000000000000     
  -18.539999999999999          0.0000000000000000     
  -18.480000000000000          0.0000000000000000     
  -18.420000000000002          0.0000000000000000     
  -18.359999999999999          0.0000000000000000     
  -18.300000000000001          0.0000000000000000     
  -18.240000000000002          0.0000000000000000     
  -18.180000000000000          0.0000000000000000     
  -18.120000000000001          0.0000000000000000     
  -18.060000000000002          0.0000000000000000     
  -18.000000000000000          0.0000000000000000     
  -17.940000000000001          0.0000000000000000     
  -17.879999999999999          0.0000000000000000     
  -17.820000000000000          0.0000000000000000     
  -17.759999999999998          0.0000000000000000     
  -17.699999999999999          0.0000000000000000     
  -17.640000000000001          0.0000000000000000     
  -17.579999999999998          0.0000000000000000     
  -17.520000000000000          0.0000000000000000     
  -17.460000000000001          0.0000000000000000     
  -17.399999999999999          0.0000000000000000     
  -17.340000000000000          0.0000000000000000     
  -17.280000000000001          0.0000000000000000     
  -17.219999999999999          0.0000000000000000     
  -17.160000000000000          0.0000000000000000     
  -17.100000000000001          0.0000000000000000     
  -17.039999999999999          0.0000000000000000     
  -16.980000000000000          0.0000000000000000     
  -16.920000000000002          0.0000000000000000     
  -16.859999999999999          0.0000000000000000     
  -16.800000000000001          0.0000000000000000     
  -16.740000000000002          0.0000000000000000     
  -16.680000000000000          0.0000000000000000     
  -16.620000000000001          0.0000000000000000     
  -16.560000000000002          0.0000000000000000     
  -16.500000000000000          0.0000000000000000     
  -16.440000000000001          0.0000000000000000     
  -16.379999999999999          0.0000000000000000     
  -16.320000000000000          0.0000000000000000     
  -16.260000000000002          0.0000000000000000     
  -16.199999999999999          0.0000000000000000     
  -16.140000000000001          0.0000000000000000     
  -16.079999999999998          0.0000000000000000     
  -16.020000000000000          0.0000000000000000     
  -15.960000000000001          0.0000000000000000     
  -15.900000000000000          0.0000000000000000     
  -15.840000000000000          0.0000000000000000     
  -15.780000000000001          0.0000000000000000     
  -15.720000000000001          0.0000000000000000     
  -15.660000000000000          0.0000000000000000     
  -15.600000000000000          0.0000000000000000     
  -15.540000000000001          0.0000000000000000     
  -15.480000000000000          0.0000000000000000     
  -15.420000000000000          0.0000000000000000     
  -15.359999999999999          0.0000000000000000     
  -15.300000000000001          0.0000000000000000     
  -15.240000000000000          0.0000000000000000     
  -15.180000000000000          0.0000000000000000     
  -15.120000000000001          0.0000000000000000     
  -15.060000000000000          0.0000000000000000     
  -15.000000000000000          0.0000000000000000     
  -14.940000000000000          0.0000000000000000     
  -14.880000000000001          0.0000000000000000     
  -14.820000000000000          0.0000000000000000     
  -14.760000000000000          0.0000000000000000     
  -14.700000000000001          0.0000000000000000     
  -14.640000000000001          0.0000000000000000     
  -14.580000000000000          0.0000000000000000     
  -14.520000000000000          0.0000000000000000     
  -14.460000000000001          0.0000000000000000     
  -14.400000000000000          0.0000000000000000     
  -14.340000000000000          0.0000000000000000     
  -14.280000000000001          0.0000000000000000     
  -14.220000000000001          0.0000000000000000     
  -14.160000000000000          0.0000000000000000     
  -14.100000000000000          0.0000000000000000     
  -14.040000000000001          0.0000000000000000     
  -13.980000000000000          0.0000000000000000     
  -13.920000000000000          0.0000000000000000     
  -13.860000000000001          0.0000000000000000     
  -13.800000000000001          0.0000000000000000     
  -13.740000000000000          0.0000000000000000     
  -13.680000000000000          0.0000000000000000     
  -13.620000000000001          0.0000000000000000     
  -13.560000000000000          0.0000000000000000     
  -13.500000000000000          0.0000000000000000     
  -13.440000000000001          0.0000000000000000     
  -13.380000000000001          0.0000000000000000     
  -13.320000000000000          0.0000000000000000     
  -13.260000000000000          0.0000000000000000     
  -13.200000000000001          0.0000000000000000     
  -13.140000000000001          0.0000000000000000     
  -13.080000000000000          0.0000000000000000     
  -13.020000000000000          0.0000000000000000     
  -12.960000000000001          0.0000000000000000     
  -12.900000000000000          0.0000000000000000     
  -12.840000000000000          0.0000000000000000     
  -12.780000000000001          0.0000000000000000     
  -12.720000000000001          0.0000000000000000     
  -12.660000000000000          0.0000000000000000     
  -12.600000000000000          0.0000000000000000     
  -12.540000000000001          0.0000000000000000     
  -12.480000000000000          0.0000000000000000     
  -12.420000000000000          0.0000000000000000     
  -12.360000000000001          0.0000000000000000     
  -12.300000000000001          0.0000000000000000     
  -12.240000000000000          0.0000000000000000     
  -12.180000000000000          0.0000000000000000     
  -12.120000000000001          0.0000000000000000     
  -12.060000000000000          0.0000000000000000     
  -12.000000000000000          0.0000000000000000     
  -11.940000000000001          0.0000000000000000     
  -11.880000000000001          0.0000000000000000     
  -11.820000000000000          0.0000000000000000     
  -11.760000000000000          0.0000000000000000     
  -11.700000000000001          0.0000000000000000     
  -11.640000000000001          0.0000000000000000     
  -11.580000000000000          0.0000000000000000     
  -11.520000000000000          0.0000000000000000     
  -11.460000000000001          0.0000000000000000     
  -11.400000000000000          0.0000000000000000     
  -11.340000000000000          0.0000000000000000     
  -11.280000000000001          0.0000000000000000     
  -11.220000000000001          0.0000000000000000     
  -11.160000000000000          0.0000000000000000     
  -11.100000000000000          0.0000000000000000     
  -11.040000000000001          0.0000000000000000     
  -10.980000000000000          0.0000000000000000     
  -10.920000000000000          0.0000000000000000     
  -10.860000000000001          0.0000000000000000     
  -10.800000000000001          0.0000000000000000     
  -10.740000000000000          0.0000000000000000     
  -10.680000000000000          0.0000000000000000     
  -10.620000000000001          0.0000000000000000     
  -10.560000000000000          0.0000000000000000     
  -10.500000000000000          0.0000000000000000     
  -10.440000000000001          0.0000000000000000     
  -10.380000000000001          0.0000000000000000     
  -10.320000000000000          0.0000000000000000     
  -10.260000000000000          0.0000000000000000     
  -10.200000000000001          0.0000000000000000     
  -10.140000000000001          0.0000000000000000     
  -10.080000000000000          0.0000000000000000     
  -10.020000000000001          0.0000000000000000     
  -9.9600000000000009          0.0000000000000000     
  -9.9000000000000004          0.0000000000000000     
  -9.8399999999999999          0.0000000000000000     
  -9.7800000000000011          0.0000000000000000     
  -9.7200000000000006          0.0000000000000000     
  -9.6600000000000001          0.0000000000000000     
  -9.6000000000000014          0.0000000000000000     
  -9.5400000000000009          0.0000000000000000     
  -9.4800000000000004          0.0000000000000000     
  -9.4199999999999999          0.0000000000000000     
  -9.3600000000000012          0.0000000000000000     
  -9.3000000000000007          0.0000000000000000     
  -9.2400000000000002          0.0000000000000000     
  -9.1799999999999997          0.0000000000000000     
  -9.1200000000000010          0.0000000000000000     
  -9.0600000000000005          0.0000000000000000     
  -9.0000000000000000          0.0000000000000000     
  -8.9400000000000013          0.0000000000000000     
  -8.8800000000000008          0.0000000000000000     
  -8.8200000000000003          0.0000000000000000     
  -8.7599999999999998          0.0000000000000000     
  -8.7000000000000011          0.0000000000000000     
  -8.6400000000000006          0.0000000000000000     
  -8.5800000000000001          0.0000000000000000     
  -8.5200000000000014          0.0000000000000000     
  -8.4600000000000009          0.0000000000000000     
  -8.4000000000000004          0.0000000000000000     
  -8.3399999999999999          0.0000000000000000     
  -8.2800000000000011          0.0000000000000000     
  -8.2200000000000006          0.0000000000000000     
  -8.1600000000000001          0.0000000000000000     
  -8.1000000000000014          0.0000000000000000     
  -8.0400000000000009          0.0000000000000000     
  -7.9800000000000004          0.0000000000000000     
  -7.9200000000000017          0.0000000000000000     
  -7.8599999999999994          0.0000000000000000     
  -7.8000000000000007          0.0000000000000000     
  -7.7400000000000020          0.0000000000000000     
  -7.6799999999999997          0.0000000000000000     
  -7.6200000000000010          0.0000000000000000     
  -7.5600000000000023          0.0000000000000000     
  -7.5000000000000000          0.0000000000000000     
  -7.4400000000000013          0.0000000000000000     
  -7.3799999999999990          0.0000000000000000     
  -7.3200000000000003          0.0000000000000000     
  -7.2600000000000016          0.0000000000000000     
  -7.1999999999999993          0.0000000000000000     
  -7.1400000000000006          0.0000000000000000     
  -7.0800000000000018          0.0000000000000000     
  -7.0199999999999996          0.0000000000000000     
  -6.9600000000000009          0.0000000000000000     
  -6.9000000000000021          0.0000000000000000     
  -6.8399999999999999          0.0000000000000000     
  -6.7800000000000011          0.0000000000000000     
  -6.7199999999999989          0.0000000000000000     
  -6.6600000000000001          0.0000000000000000     
  -6.6000000000000014          0.0000000000000000     
  -6.5399999999999991          0.0000000000000000     
  -6.4800000000000004          0.0000000000000000     
  -6.4200000000000017          0.0000000000000000     
  -6.3599999999999994          0.0000000000000000     
  -6.3000000000000007          0.0000000000000000     
  -6.2400000000000020          0.0000000000000000     
  -6.1799999999999997          0.0000000000000000     
  -6.1200000000000010          0.0000000000000000     
  -6.0600000000000023          0.0000000000000000     
  -6.0000000000000000          0.0000000000000000     
  -5.9400000000000013          0.0000000000000000     
  -5.8799999999999990          0.0000000000000000     
  -5.8200000000000003          0.0000000000000000     
  -5.7600000000000016          0.0000000000000000     
  -5.6999999999999993          0.0000000000000000     
  -5.6400000000000006          0.0000000000000000     
  -5.5800000000000018          0.0000000000000000     
  -5.5199999999999996          0.0000000000000000     
  -5.4600000000000009          0.0000000000000000     
  -5.4000000000000021          0.0000000000000000     
  -5.3399999999999999          0.0000000000000000     
  -5.2800000000000011          0.0000000000000000     
  -5.2200000000000024          0.0000000000000000     
  -5.1600000000000001          0.0000000000000000     
  -5.1000000000000014          0.0000000000000000     
  -5.0399999999999991          0.0000000000000000     
  -4.9800000000000004          0.0000000000000000     
  -4.9200000000000017          0.0000000000000000     
  -4.8599999999999994          0.0000000000000000     
  -4.8000000000000007          0.0000000000000000     
  -4.7400000000000020          0.0000000000000000     
  -4.6799999999999997          0.0000000000000000     
  -4.6200000000000010          0.0000000000000000     
  -4.5600000000000023          0.0000000000000000     
  -4.5000000000000000          0.0000000000000000     
  -4.4400000000000013          0.0000000000000000     
  -4.3799999999999990          0.0000000000000000     
  -4.3200000000000003         -4.1676462090941430E-041
  -4.2600000000000016         -1.1805936724548360E-040
  -4.1999999999999993         -2.3358627668773786E-040
  -4.1400000000000006         -3.9082006227891095E-040
  -4.0800000000000018         -5.9011355398680198E-040
  -4.0199999999999996         -8.4084821341379884E-040
  -3.9600000000000009         -1.1516814100076193E-039
  -3.9000000000000021         -1.5074452563498305E-039
  -3.8399999999999999         -1.8949764226365951E-039
  -3.7800000000000011         -2.3150742360335032E-039
  -3.7200000000000024         -2.7514196560784878E-039
  -3.6600000000000001         -3.1738244374079554E-039
  -3.6000000000000014         -3.5025264152798209E-039
  -3.5399999999999991         -3.7231160410630332E-039
  -3.4800000000000004         -3.9144252620624676E-039
  -3.4200000000000017         -3.7595713843524772E-039
  -3.3599999999999994         -3.2343219926713031E-039
  -3.3000000000000007         -2.2938063240523641E-039
  -3.2400000000000020         -9.1509634754620184E-040
  -3.1799999999999997          9.0617651620862521E-040
  -3.1200000000000010          3.0856659306940758E-039
  -3.0600000000000023          5.3773321091545859E-039
  -3.0000000000000000          7.7628296145613242E-039
  -2.9400000000000013          1.0032417459726363E-038
  -2.8800000000000026          1.2205274594465151E-038
  -2.8200000000000003          1.4023863840380787E-038
  -2.7600000000000016          1.5029839729110456E-038
  -2.6999999999999993          1.5451358610677468E-038
  -2.6400000000000006          1.5404281225638692E-038
  -2.5800000000000018          1.4505532006302064E-038
  -2.5199999999999996          1.2618307718711275E-038
  -2.4600000000000009          9.5257897924711929E-039
  -2.4000000000000021          5.1505978795369092E-039
  -2.3399999999999999         -4.7723834565769022E-040
  -2.2800000000000011         -7.2102936596317396E-039
  -2.2200000000000024         -1.4986266601940732E-038
  -2.1600000000000001         -2.3549729673908339E-038
  -2.1000000000000014         -3.1680633644256158E-038
  -2.0399999999999991         -3.8786608599336919E-038
  -1.9800000000000004         -4.4643595034333420E-038
  -1.9200000000000017         -4.9571160928952005E-038
  -1.8599999999999994         -5.4468276544502736E-038
  -1.8000000000000007         -5.7101958722123849E-038
  -1.7400000000000020         -5.8454558860218731E-038
  -1.6799999999999997         -5.7814232157649135E-038
  -1.6200000000000010         -5.5026195118293618E-038
  -1.5600000000000023         -4.8222622616733024E-038
  -1.5000000000000000         -3.6769933640534907E-038
  -1.4400000000000013         -2.0815209693718776E-038
  -1.3800000000000026         -2.0117246139015257E-040
  -1.3200000000000003          2.4997604193084546E-038
  -1.2600000000000016          5.5522859691104280E-038
  -1.1999999999999993          8.8059511462621284E-038
  -1.1400000000000006          1.2276836101200057E-037
  -1.0800000000000018          1.5685686538496595E-037
  -1.0199999999999996          1.8727701955794761E-037
 -0.96000000000000085          2.1543674943459718E-037
 -0.90000000000000213          2.3803212343469320E-037
 -0.83999999999999986          2.5296090211244973E-037
 -0.78000000000000114          2.5930392118215361E-037
 -0.72000000000000242          2.5227171262618519E-037
 -0.66000000000000014          2.2821262906564340E-037
 -0.60000000000000142          1.8723057663487000E-037
 -0.53999999999999915          1.2852917181497093E-037
 -0.48000000000000043          5.1287620607313436E-038
 -0.42000000000000171         -4.5977702379771350E-038
 -0.35999999999999943         -1.5857856756061146E-037
 -0.30000000000000071         -2.9902678904056467E-037
 -0.24000000000000199         -4.6627483236592134E-037
 -0.17999999999999972         -6.5034332564302800E-037
 -0.12000000000000099         -8.3709798261571233E-037
  -6.0000000000002274E-002    -1.0162354021007232E-036
   0.0000000000000000         -1.1765936207842981E-036
   5.9999999999998721E-002    -1.3065170426464711E-036
  0.11999999999999744         -1.3961608130275283E-036
  0.17999999999999972         -1.4319726772700049E-036
  0.23999999999999844         -1.4017873589983694E-036
  0.30000000000000071         -1.2909940146745089E-036
  0.35999999999999943         -1.0875265796220168E-036
  0.41999999999999815         -7.8316577713121672E-037
  0.48000000000000043         -3.7291787396732821E-037
  0.53999999999999915          1.4502276352872814E-037
  0.59999999999999787          7.9264225824493021E-037
  0.66000000000000014          1.5434421248714679E-036
  0.71999999999999886          2.3740293614365417E-036
  0.77999999999999758          3.2666052469930857E-036
  0.83999999999999986          4.1935702023532898E-036
  0.89999999999999858          5.1175935409686341E-036
  0.96000000000000085          5.9978298163040064E-036
   1.0199999999999996          6.7943116256114130E-036
   1.0799999999999983          7.4489483224374176E-036
   1.1400000000000006          7.9027744205878711E-036
   1.1999999999999993          8.0886102004773540E-036
   1.2599999999999980          7.9450720054354082E-036
   1.3200000000000003          7.3695636019879191E-036
   1.3799999999999990          6.2794576502881097E-036
   1.4399999999999977          4.6363716803472448E-036
   1.5000000000000000          2.4190940329334082E-036
   1.5599999999999987         -3.9902858586361305E-037
   1.6199999999999974         -3.8199696728029616E-036
   1.6799999999999997         -7.8276670458271110E-036
   1.7399999999999984         -1.2379793333266840E-035
   1.8000000000000007         -1.7393645364454999E-035
   1.8599999999999994         -2.2762317688732088E-035
   1.9199999999999982         -2.8330424299294585E-035
   1.9800000000000004         -3.3907443040805822E-035
   2.0399999999999991         -3.9232847668849016E-035
   2.0999999999999979         -4.4052308695177255E-035
   2.1600000000000001         -4.8049529348223006E-035
   2.2199999999999989         -5.0903730379007284E-035
   2.2799999999999976         -5.2280946101654519E-035
   2.3399999999999999         -5.1721985931374987E-035
   2.3999999999999986         -4.8864088111019859E-035
   2.4599999999999973         -4.3281166934307927E-035
   2.5199999999999996         -3.4568334157118973E-035
   2.5799999999999983         -2.2391569455321410E-035
   2.6400000000000006         -6.5070776419766211E-036
   2.6999999999999993          1.3231740923474354E-035
   2.7599999999999980          3.6841947392102647E-035
   2.8200000000000003          6.4192335577149212E-035
   2.8799999999999990          9.4981425447132915E-035
   2.9399999999999977          1.2870681856846620E-034
   3.0000000000000000          1.6459404409899968E-034
   3.0599999999999987          2.0169214362890621E-034
   3.1199999999999974          2.3877985928870810E-034
   3.1799999999999997          2.7443819343474218E-034
   3.2399999999999984          3.0689637900367083E-034
   3.3000000000000007          3.3432924693100975E-034
   3.3599999999999994          3.5455637632801370E-034
   3.4199999999999982          3.6531543527706197E-034
   3.4800000000000004          3.6422475679878568E-034
   3.5399999999999991          3.4889123929131741E-034
   3.5999999999999979          3.1698735387954356E-034
   3.6600000000000001          2.6635494369431918E-034
   3.7199999999999989          1.9512593822781141E-034
   3.7799999999999976          1.0184231755278825E-034
   3.8399999999999999         -1.4407858357730810E-035
   3.8999999999999986         -1.5384245497937622E-034
   3.9599999999999973         -3.1583726806223304E-034
   4.0199999999999996         -4.9879010224056314E-034
   4.0799999999999983         -6.9998589457598876E-034
   4.1400000000000006         -9.1548673774648722E-034
   4.1999999999999993         -1.1400466101772158E-033
   4.2599999999999980         -1.3670318002206666E-033
   4.3200000000000003         -1.5884077690366735E-033
   4.3799999999999990         -1.7947750613910631E-033
   4.4399999999999977         -1.9754562934703896E-033
   4.5000000000000000         -2.1186284653333164E-033
   4.5599999999999987         -2.2115621044578643E-033
   4.6199999999999974         -2.2409109283060516E-033
   4.6799999999999997         -2.1930870237337915E-033
   4.7399999999999984         -2.0547139794686700E-033
   4.7999999999999972         -1.8131562839326637E-033
   4.8599999999999994         -1.4571453009586192E-033
   4.9199999999999982         -9.7744698452158298E-034
   4.9800000000000004         -3.6759115315039847E-034
   5.0399999999999991          3.7536986458999123E-034
   5.0999999999999979          1.2500803159063831E-033
   5.1600000000000001          2.2501016044632212E-033
   5.2199999999999989          3.3631946535358503E-033
   5.2799999999999976          4.5706646415746223E-033
   5.3399999999999999          5.8468193983860617E-033
   5.3999999999999986          7.1585876025758830E-033
   5.4599999999999973          8.4653084827153531E-033
   5.5199999999999996          9.7187933109116531E-033
   5.5799999999999983          1.0863643020652984E-032
   5.6400000000000006          1.1837886673529176E-032
   5.6999999999999993          1.2573998847815423E-032
   5.7599999999999980          1.3000269320325298E-032
   5.8200000000000003          1.3042597552673238E-032
   5.8799999999999990          1.2626690114540033E-032
   5.9399999999999977          1.1680680673966230E-032
   6.0000000000000000          1.0138137168956989E-032
   6.0599999999999987          7.9414327517157401E-033
   6.1199999999999974          5.0454064484349635E-033
   6.1799999999999997          1.4212676375665692E-033
   6.2399999999999984         -2.9393857492226878E-033
   6.2999999999999972         -8.0205219712595463E-033
   6.3599999999999994         -1.3777769566613818E-032
   6.4199999999999982         -2.0134792673755407E-032
   6.4800000000000004         -2.6980136645688091E-032
   6.5399999999999991         -3.4164737456010705E-032
   6.5999999999999979         -4.1500284379813447E-032
   6.6600000000000001         -4.8758687251374239E-032
   6.7199999999999989         -5.5672800045279760E-032
   6.7799999999999976         -6.1938652715160884E-032
   6.8399999999999999         -6.7219357246956218E-032
   6.8999999999999986         -7.1150851371444007E-032
   6.9599999999999973         -7.3349603242991133E-032
   7.0199999999999996         -7.3422351647724750E-032
   7.0799999999999983         -7.0977926240336819E-032
   7.1400000000000006         -6.5641075043945690E-032
   7.1999999999999993         -5.7068190767694288E-032
   7.2599999999999980         -4.4964751138907398E-032
   7.3200000000000003         -2.9104091620124933E-032
   7.3799999999999990         -9.3472255979648333E-033
   7.4399999999999977          1.4336868810884432E-032
   7.5000000000000000          4.1851094671138210E-032
   7.5599999999999987          7.2950922931731738E-032
   7.6199999999999974          1.0722666462365713E-031
   7.6799999999999997          1.4408825233693188E-031
   7.7399999999999984          1.8275355119822766E-031
   7.7999999999999972          2.2224101888294475E-031
   7.8599999999999994          2.6136785018274869E-031
   7.9199999999999982          2.9875457259745682E-031
   7.9800000000000004          3.3283703653643132E-031
   8.0399999999999991          3.6188663399903434E-031
   8.1000000000000014          3.8403951058754498E-031
   8.1599999999999966          3.9733532087702569E-031
   8.2199999999999989          3.9976583939838917E-031
   8.2800000000000011          3.8933341944780220E-031
   8.3399999999999963          3.6411921713275115E-031
   8.3999999999999986          3.2236027778967444E-031
   8.4600000000000009          2.6253468132089178E-031
   8.5199999999999960          1.8345327292020849E-031
   8.5799999999999983          8.4355710182556705E-032
   8.6400000000000006         -3.4991111802988982E-032