  -24.000000000000000          0.0000000000000000     
  -23.940000000000001          0.0000000000000000     
  -23.879999999999999          0.0000000000000000     
  -23.820000000000000          0.0000000000000000     
  -23.760000000000002          0.0000000000000000     
  -23.699999999999999          0.0000000000000000     
  -23.640000000000001          0.0000000000000000     
  -23.579999999999998          0.0000000000000000     
  -23.520000000000000          0.0000000000000000     
  -23.460000000000001          0.0000000000000000     
  -23.399999999999999          0.0000000000000000     
  -23.340000000000000          0.0000000000000000     
  -23.280000000000001          0.0000000000000000     
  -23.219999999999999          0.0000000000000000     
  -23.160000000000000          0.0000000000000000     
  -23.100000000000001          0.0000000000000000     
  -23.039999999999999          0.0000000000000000     
  -22.980000000000000          0.0000000000000000     
  -22.920000000000002          0.0000000000000000     
  -22.859999999999999          0.0000000000000000     
  -22.800000000000001          0.0000000000000000     
  -22.739999999999998          0.0000000000000000     
  -22.680000000000000          0.0000000000000000     
  -22.620000000000001          0.0000000000000000     
  -22.559999999999999          0.0000000000000000     
  -22.500000000000000          0.0000000000000000     
  -22.440000000000001          0.0000000000000000     
  -22.379999999999999          0.0000000000000000     
  -22.320000000000000          0.0000000000000000     
  -22.260000000000002          0.0000000000000000     
  -22.199999999999999          0.0000000000000000     
  -22.140000000000001          0.0000000000000000     
  -22.079999999999998          0.0000000000000000     
  -22.020000000000000          0.0000000000000000     
  -21.960000000000001          0.0000000000000000     
  -21.899999999999999          0.0000000000000000     
  -21.840000000000000          0.0000000000000000     
  -21.780000000000001          0.0000000000000000     
  -21.719999999999999          0.0000000000000000     
  -21.660000000000000          0.0000000000000000     
  -21.600000000000001          0.0000000000000000     
  -21.539999999999999          0.0000000000000000     
  -21.480000000000000          0.0000000000000000     
  -21.420000000000002          0.0000000000000000     
  -21.359999999999999          0.0000000000000000     
  -21.300000000000001          0.0000000000000000     
  -21.240000000000002          0.0000000000000000     
  -21.180000000000000          0.0000000000000000     
  -21.120000000000001          0.0000000000000000     
  -21.059999999999999          0.0000000000000000     
  -21.000000000000000          0.0000000000000000     
  -20.940000000000001          0.0000000000000000     
  -20.879999999999999          0.0000000000000000     
  -20.820000000000000          0.0000000000000000     
  -20.760000000000002          0.0000000000000000     
  -20.699999999999999          0.0000000000000000     
  -20.640000000000001          0.0000000000000000     
  -20.579999999999998          0.0000000000000000     
  -20.520000000000000          0.0000000000000000     
  -20.460000000000001          0.0000000000000000     
  -20.399999999999999          0.0000000000000000     
  -20.340000000000000          0.0000000000000000     
  -20.280000000000001          0.0000000000000000     
  -20.219999999999999          0.0000000000000000     
  -20.160000000000000          0.0000000000000000     
  -20.100000000000001          0.0000000000000000     
  -20.039999999999999          0.0000000000000000     
  -19.980000000000000          0.0000000000000000     
  -19.920000000000002          0.0000000000000000     
  -19.859999999999999          0.0000000000000000     
  -19.800000000000001          0.0000000000000000     
  -19.740000000000002          0.0000000000000000     
  -19.680000000000000          0.0000000000000000     
  -19.620000000000001          0.0000000000000000     
  -19.560000000000002          0.0000000000000000     
  -19.500000000000000          0.0000000000000000     
  -19.440000000000001          0.0000000000000000     
  -19.379999999999999          0.0000000000000000     
  -19.320000000000000          0.0000000000000000     
  -19.259999999999998          0.0000000000000000     
  -19.199999999999999          0.0000000000000000     
  -19.140000000000001          0.0000000000000000     
  -19.079999999999998          0.0000000000000000     
  -19.020000000000000          0.0000000000000000     
  -18.960000000000001          0.0000000000000000     
  -18.899999999999999          0.0000000000000000     
  -18.840000000000000          0.0000000000000000     
  -18.780000000000001          0.0000000000000000     
  -18.719999999999999          0.0000000000000000     
  -18.660000000000000          0.0000000000000000     
  -18.600000000000001          0.0000000000000000     
  -18.539999999999999          0.0000000000000000     
  -18.480000000000000          0.0000000000000000     
  -18.420000000000002          0.0000000000000000     
  -18.359999999999999          0.0000000000000000     
  -18.300000000000001         -1.0647970144331279E-040
  -18.240000000000002         -4.4957458303971728E-040
  -18.180000000000000         -1.0256526840273576E-039
  -18.120000000000001         -1.7834520761400511E-039
  -18.060000000000002         -2.5970166463167757E-039
  -18.000000000000000         -3.5277814354188785E-039
  -17.940000000000001         -4.5845388652698349E-039
  -17.879999999999999         -5.7695570341177429E-039
  -17.820000000000000         -7.0756217714687365E-039
  -17.759999999999998         -8.4824082423636582E-039
  -17.699999999999999         -9.9520282062804370E-039
  -17.640000000000001         -1.1424204916933960E-038
  -17.579999999999998         -1.3238183886908547E-038
  -17.520000000000000         -1.4003685203988113E-038
  -17.460000000000001         -1.3016893359426738E-038
  -17.399999999999999         -1.1381729175261166E-038
  -17.340000000000000         -8.9747806137346863E-039
  -17.280000000000001         -5.6574233127873535E-039
  -17.219999999999999         -1.2785982213811468E-039
  -17.160000000000000          4.3368245932821181E-039
  -17.100000000000001          1.1290089511006648E-038
  -17.039999999999999          1.9703875736895293E-038
  -16.980000000000000          2.9460514999642815E-038
  -16.920000000000002          4.2502587686517855E-038
  -16.859999999999999          5.8178839384751451E-038
  -16.800000000000001          7.2863151425314348E-038
  -16.740000000000002          8.6466762190380598E-038
  -16.680000000000000          9.5817018739962082E-038
  -16.620000000000001          9.7748125173354804E-038
  -16.560000000000002          9.1577960225639276E-038
  -16.500000000000000          7.4837074690816504E-038
  -16.440000000000001          4.7007228238344924E-038
  -16.379999999999999          5.5214970177441725E-039
  -16.320000000000000         -5.2283335129708989E-038
  -16.260000000000002         -1.2772309198511907E-037
  -16.199999999999999         -2.2120141865366430E-037
  -16.140000000000001         -3.3314599765765440E-037
  -16.079999999999998         -4.5826030329208812E-037
  -16.020000000000000         -5.9524234988569259E-037
  -15.960000000000001         -7.3865854503838380E-037
  -15.900000000000000         -8.8532935565164834E-037
  -15.840000000000000         -1.0122098503939310E-036
  -15.780000000000001         -1.1053260817571243E-036
  -15.720000000000001         -1.1476646027187216E-036
  -15.660000000000000         -1.1346610651691691E-036
  -15.600000000000000         -1.0478875917677151E-036
  -15.540000000000001         -8.4931465939780793E-037
  -15.480000000000000         -4.9452217553653339E-037
  -15.420000000000000          4.7407263550778445E-038
  -15.359999999999999          8.0289364099498599E-037
  -15.300000000000001          1.7972226625637684E-036
  -15.240000000000000          3.0461024866262920E-036
  -15.180000000000000          4.5451912169699473E-036
  -15.120000000000001          6.3123249194086397E-036
  -15.060000000000000          8.3367791933330877E-036
  -15.000000000000000          1.0584645145859861E-035
  -14.940000000000000          1.2990696350638792E-035
  -14.880000000000001          1.5451998203920299E-035
  -14.820000000000000          1.7831137209594352E-035
  -14.760000000000000          1.9913538400944563E-035
  -14.700000000000001          2.1445364938627315E-035
  -14.640000000000001          2.2185001587857557E-035
  -14.580000000000000          2.1752752818606494E-035
  -14.520000000000000          1.9758408511296968E-035
  -14.460000000000001          1.5770380344555851E-035
  -14.400000000000000          9.3565912995780884E-036
  -14.340000000000000          8.7385151690341725E-038
  -14.280000000000001         -1.2422391344563749E-035
  -14.220000000000001         -2.8467398466908858E-035
  -14.160000000000000         -4.8233049384411156E-035
  -14.100000000000000         -7.1715056455327458E-035
  -14.040000000000001         -9.8658274628995486E-035
  -13.980000000000000         -1.2852791598509260E-034
  -13.920000000000000         -1.6035345139662516E-034
  -13.860000000000001         -1.9279622893538750E-034
  -13.800000000000001         -2.2397286098151004E-034
  -13.740000000000000         -2.5147643294279109E-034
  -13.680000000000000         -2.7233658668593812E-034
  -13.620000000000001         -2.8302787564122974E-034
  -13.560000000000000         -2.7946907243125123E-034
  -13.500000000000000         -2.5717686038636664E-034
  -13.440000000000001         -2.1134468606536099E-034
  -13.380000000000001         -1.3708457476343371E-034
  -13.320000000000000         -2.9661930577351771E-035
  -13.260000000000000          1.1513028038734925E-034
  -13.200000000000001          3.0055670522825360E-034
  -13.140000000000001          5.2845116225716163E-034
  -13.080000000000000          7.9873235348114282E-034
  -13.020000000000000          1.1087791032454364E-033
  -12.960000000000001          1.4526894122766093E-033
  -12.900000000000000          1.8206723012737561E-033
  -12.840000000000000          2.1985440202954404E-033
  -12.780000000000001          2.5671124190425022E-033
  -12.720000000000001          2.9018109241954269E-033
  -12.660000000000000          3.1725069449297163E-033
  -12.600000000000000          3.3435586658249844E-033
  -12.540000000000001          3.3742819126388432E-033
  -12.480000000000000          3.2197125708497969E-033
  -12.420000000000000          2.8319322349855567E-033
  -12.360000000000001          2.1619475945466883E-033
  -12.300000000000001          1.1621612280582847E-033
  -12.240000000000000         -2.1051956909177342E-034
  -12.180000000000000         -1.9909392853837839E-033
  -12.120000000000001         -4.2013193058529432E-033
  -12.060000000000000         -6.8463475265078377E-033
  -12.000000000000000         -9.9078412165427143E-033
  -11.940000000000001         -1.3339140926022368E-032
  -11.880000000000001         -1.7059526646963120E-032
  -11.820000000000000         -2.0948910592823713E-032
  -11.760000000000000         -2.4843186554647318E-032
  -11.700000000000001         -2.8530707868679234E-032
  -11.640000000000001         -3.1750350626658806E-032
  -11.580000000000000         -3.4191718086492656E-032
  -11.520000000000000         -3.5498069203530594E-032
  -11.460000000000001         -3.5272567604362025E-032
  -11.400000000000000         -3.3088327822038516E-032
  -11.340000000000000         -2.8502913230004670E-032
  -11.280000000000001         -2.1077559790610948E-032
  -11.220000000000001         -1.0401424622214163E-032
  -11.160000000000000          3.8790300759696088E-033
  -11.100000000000000          2.2025772849224603E-032
  -11.040000000000001          4.4170484003523312E-032
  -10.980000000000000          7.0272287558985060E-032
  -10.920000000000000          1.0007314426461394E-031
  -10.860000000000001          1.3305262343735583E-031
  -10.800000000000001          1.6838428127408667E-031
  -10.740000000000000          2.0489616165941458E-031
  -10.680000000000000          2.4103863050962742E-031
  -10.620000000000001          2.7486315588256685E-031
  -10.560000000000000          3.0401564013870842E-031
  -10.500000000000000          3.2574875184037945E-031
  -10.440000000000001          3.3695723929629633E-031
  -10.380000000000001          3.3424033227781595E-031
  -10.320000000000000          3.1399531073091054E-031
  -10.260000000000000          2.7254492743067208E-031
  -10.200000000000001          2.0630131551776871E-031
  -10.140000000000001          1.1196729532051405E-031
  -10.080000000000000         -1.3225478034743053E-032
  -10.020000000000001         -1.7124415242508700E-031
  -9.9600000000000009         -3.6295245557879531E-031
  -9.9000000000000004         -5.8778717137187116E-031
  -9.8399999999999999         -8.4342216614352811E-031
  -9.7800000000000011         -1.1254344072657467E-030
  -9.7200000000000006         -1.4269887918856193E-030
  -9.6600000000000001         -1.7385604933794467E-030
  -9.6000000000000014         -2.0477179839784129E-030
  -9.5400000000000009         -2.3389927228351391E-030
  -9.4800000000000004         -2.5938612557988071E-030
  -9.4199999999999999         -2.7908690128722135E-030
  -9.3600000000000012         -2.9059230002777447E-030
  -9.3000000000000007         -2.9127822445535992E-030
  -9.2400000000000002         -2.7837668565064275E-030
  -9.1799999999999997         -2.4907084823060546E-030
  -9.1200000000000010         -2.0061514855521255E-030
  -9.0600000000000005         -1.3048111550714182E-030
  -9.0000000000000000         -3.6528122212493661E-031
  -8.9400000000000013          8.2803320265213487E-031
  -8.8800000000000008          2.2827880109434097E-030
  -8.8200000000000003          3.9964344701785439E-030
  -8.7599999999999998          5.9538837181032015E-030
  -8.7000000000000011          8.1252011414495571E-030
  -8.6400000000000006          1.0463428714303361E-029
  -8.5800000000000001          1.2902676196513271E-029
  -8.5200000000000014          1.5356627498012958E-029
  -8.4600000000000009          1.7717620833161720E-029
  -8.4000000000000004          1.9856478676525422E-029
  -8.3399999999999999          2.1623270940361255E-029
  -8.2800000000000011          2.2849181864290618E-029
  -8.2200000000000006          2.3349653704799930E-029
  -8.1600000000000001          2.2928958176519437E-029
  -8.1000000000000014          2.1386308540389807E-029
  -8.0400000000000009          1.8523596289436051E-029
  -7.9800000000000004          1.4154771968429678E-029
  -7.9200000000000017          8.1168149571868583E-030
  -7.8599999999999994          2.8218852802445325E-031
  -7.8000000000000007         -9.4274431892262155E-030
  -7.7400000000000020         -2.1026581423002900E-029
  -7.6799999999999997         -3.4450741173995034E-029
  -7.6200000000000010         -4.9541341963936609E-029
  -7.5600000000000023         -6.6031288946848269E-029
  -7.5000000000000000         -8.3532048201549922E-029
  -7.4400000000000013         -1.0152309547401755E-028
  -7.3799999999999990         -1.1934465841298329E-028
  -7.3200000000000003         -1.3619485117996925E-028
  -7.2600000000000016         -1.5113223363291630E-028
  -7.1999999999999993         -1.6308487232340154E-028
  -7.1400000000000006         -1.7086690914001178E-028
  -7.0800000000000018         -1.7320362049237482E-028
  -7.0199999999999996         -1.6876557203782093E-028
  -6.9600000000000009         -1.5621258922181473E-028
  -6.9000000000000021         -1.3424763581518199E-028
  -6.8399999999999999         -1.0168050818856304E-028
  -6.7800000000000011         -5.7500722576509113E-029
  -6.7199999999999989         -9.5869174351486153E-031
  -6.6600000000000001          6.8346697620483824E-029
  -6.6000000000000014          1.5037626853389446E-028
  -6.5399999999999991          2.4455727959873833E-028
  -6.4800000000000004          3.4969232496950249E-028
  -6.4200000000000017          4.6387476696000450E-028
  -6.3599999999999994          5.8441512583112461E-028
  -6.3000000000000007          7.0778428266473866E-028
  -6.2400000000000020          8.2957842871899991E-028
  -6.1799999999999997          9.4451273856553624E-028
  -6.1200000000000010          1.0464490612955086E-027
  -6.0600000000000023          1.1284636848937343E-027
  -6.0000000000000000          1.1829613479999359E-027
  -5.9400000000000013          1.2018392980405210E-027
  -5.8799999999999990          1.1767057424922270E-027
  -5.8200000000000003          1.0991543824668957E-027
  -5.7600000000000016          9.6109662795693397E-028
  -5.6999999999999993          7.5514855611728804E-028
  -5.6400000000000006          4.7506911746752873E-028
  -5.5800000000000018          1.1624225240088173E-028
  -5.5199999999999996         -3.2380692089080227E-028
  -5.4600000000000009         -8.4487578741661390E-028
  -5.4000000000000021         -1.4435443900061108E-027
  -5.3399999999999999         -2.1126528150892477E-027
  -5.2800000000000011         -2.8408197006156380E-027
  -5.2200000000000024         -3.6120280566092957E-027
  -5.1600000000000001         -4.4053084346418703E-027
  -5.1000000000000014         -5.1945506876183671E-027
  -5.0399999999999991         -5.9484759879320148E-027
  -4.9800000000000004         -6.6308035456832779E-027
  -4.9200000000000017         -7.2006415451411068E-027
  -4.8599999999999994         -7.6131307869319121E-027
  -4.8000000000000007         -7.8203706002659922E-027
  -4.7400000000000020         -7.7726355322676196E-027
  -4.6799999999999997         -7.4199053687856614E-027
  -4.6200000000000010         -6.7137013782206086E-027
  -4.5600000000000023         -5.6092242544634184E-027
  -4.5000000000000000         -4.0677657351259365E-027
  -4.4400000000000013         -2.0593594163950241E-027
  -4.3799999999999990          4.3438326373632253E-028
  -4.3200000000000003          3.4173309460457170E-027
  -4.2600000000000016          6.8758537180779536E-027
  -4.1999999999999993          1.0775943309203915E-026
  -4.1400000000000006          1.5060519882246227E-026
  -4.0800000000000018          1.9647100863372158E-026
  -4.0199999999999996          2.4425950016732526E-026
  -3.9600000000000009          2.9258883329782070E-026
  -3.9000000000000021          3.3978906235040562E-026
  -3.8399999999999999          3.8390826446158175E-026
  -3.7800000000000011          4.2273020743428740E-026
  -3.7200000000000024          4.5380488144427180E-026
  -3.6600000000000001          4.7449354275460045E-026
  -3.6000000000000014          4.8202866005781018E-026
  -3.5399999999999991          4.7359000837313827E-026
  -3.4800000000000004          4.4639654251375736E-026
  -3.4200000000000017          3.9781419657301776E-026
  -3.3599999999999994          3.2547800889331442E-026
  -3.3000000000000007          2.2742737560136796E-026
  -3.2400000000000020          1.0225169233265937E-026
  -3.1799999999999997         -5.0757342402462938E-027
  -3.1200000000000010         -2.3144972915399502E-026
  -3.0600000000000023         -4.3866413711090486E-026
  -3.0000000000000000         -6.7008219195993139E-026
  -2.9400000000000013         -9.2209741760024792E-026
  -2.8800000000000026         -1.1897059791712634E-025
  -2.8200000000000003         -1.4664266750312266E-025
  -2.7600000000000016         -1.7442588271799612E-025
  -2.6999999999999993         -2.0136850232147391E-025
  -2.6400000000000006         -2.2637282901679630E-025
  -2.5800000000000018         -2.4820701367734780E-025
  -2.5199999999999996         -2.6552354367630211E-025
  -2.4600000000000009         -2.7688521255172565E-025
  -2.4000000000000021         -2.8079866967738920E-025
  -2.3399999999999999         -2.7575590170959861E-025
  -2.2800000000000011         -2.6028356673253775E-025
  -2.2200000000000024         -2.3299982931524569E-025
  -2.1600000000000001         -1.9267809241459692E-025
  -2.1000000000000014         -1.3831653102016482E-025
  -2.0399999999999991         -6.9212164554404703E-026
  -1.9800000000000004          1.4962299781054760E-026
  -1.9200000000000017          1.1408090820711178E-025
  -1.8599999999999994          2.2748902193290488E-025
  -1.8000000000000007          3.5393259193918241E-025
  -1.7400000000000020          4.9149505264635398E-025
  -1.6799999999999997          6.3754635392110442E-025
  -1.6200000000000010          7.8870656393293646E-025
  -1.5600000000000023          9.4082879786800247E-025
  -1.5000000000000000          1.0890043005911513E-024
  -1.4400000000000013          1.2275946488972229E-024
  -1.3800000000000026          1.3502929613980471E-024
  -1.3200000000000003          1.4502179282633960E-024
  -1.2600000000000016          1.5200431559854290E-024
  -1.1999999999999993          1.5521628833257433E-024
  -1.1400000000000006          1.5388947018493712E-024
  -1.0800000000000018          1.4727193666888643E-024
  -1.0199999999999996          1.3465552594434333E-024
 -0.96000000000000085          1.1540644327697076E-024
 -0.90000000000000213          8.8998599404191405E-025
 -0.83999999999999986          5.5048933639005943E-025
 -0.78000000000000114          1.3354039796510830E-025
 -0.72000000000000242         -3.6073062327218212E-025
 -0.66000000000000014         -9.2966922003973564E-025
 -0.60000000000000142         -1.5677604923952835E-024
 -0.53999999999999915         -2.2663278921548912E-024
 -0.48000000000000043         -3.0132862801296876E-024
 -0.42000000000000171         -3.7929620025860623E-024
 -0.35999999999999943         -4.5859993337597637E-024
 -0.30000000000000071         -5.3693695710381670E-024
 -0.24000000000000199         -6.1164972909070944E-024
 -0.17999999999999972         -6.7975223990684906E-024
 -0.12000000000000099         -7.3797070855942132E-024
  -6.0000000000002274E-002    -7.8279989195614965E-024
   0.0000000000000000         -8.1057601187924993E-024
   5.9999999999998721E-002    -8.1756641617754354E-024
  0.11999999999999744         -8.0007557777948983E-024
  0.17999999999999972         -7.5456708357547434E-024
  0.23999999999999844         -6.7780005831559578E-024
  0.30000000000000071         -5.6697822358907175E-024
  0.35999999999999943         -4.1990865140431306E-024
  0.41999999999999815         -2.3516700650572225E-024
  0.48000000000000043         -1.2265123200555671E-025
  0.53999999999999915          2.4818391915761830E-024
  0.59999999999999787          5.4430902510817408E-024
  0.66000000000000014          8.7283802247888682E-024
  0.71999999999999886          1.2289756853662719E-023
  0.77999999999999758          1.6063089737617834E-023
  0.83999999999999986          1.9967475544443442E-023
  0.89999999999999858          2.3905063649980465E-023
  0.96000000000000085          2.7761359948381133E-023
   1.0199999999999996          3.1406102803008240E-023
   1.0799999999999983          3.4694738720758050E-023
   1.1400000000000006          3.7470562496754786E-023
   1.1999999999999993          3.9567557033634434E-023
   1.2599999999999980          4.0813947337477100E-023
   1.3200000000000003          4.1036468335044596E-023
   1.3799999999999990          4.0065342396411024E-023
   1.4399999999999977          3.7739898220308360E-023
   1.5000000000000000          3.3914764842954420E-023
   1.5599999999999987          2.8466579051937615E-023
   1.6199999999999974          2.1301014536157529E-023
   1.6799999999999997          1.2360038031063595E-023
   1.7399999999999984          1.6291786026045110E-024
   1.8000000000000007         -1.0855417497225127E-023
   1.8599999999999994         -2.5000346950400724E-023
   1.9199999999999982         -4.0649010365977692E-023
   1.9800000000000004         -5.7576652553340769E-023
   2.0399999999999991         -7.5486634069471326E-023
   2.0999999999999979         -9.4008314028417822E-023
   2.1600000000000001         -1.1269669005266327E-022
   2.2199999999999989         -1.3103421875609301E-022
   2.2799999999999976         -1.4843499575509732E-022
   2.3399999999999999         -1.6425153371283480E-022
   2.3999999999999986         -1.7778430214142959E-022
   2.4599999999999973         -1.8829419273009927E-022
   2.5199999999999996         -1.9501788883788851E-022
   2.5799999999999983         -1.9718627980647217E-022
   2.6400000000000006         -1.9404558931566677E-022
   2.6999999999999993         -1.8488122615635023E-022
   2.7599999999999980         -1.6904391082038940E-022
   2.8200000000000003         -1.4597775609898858E-022
   2.8799999999999990         -1.1524967201054498E-022
   2.9399999999999977         -7.6579588953560570E-023
   3.0000000000000000         -2.9870661661572339E-023
   3.0599999999999987          2.4761515250462906E-023
   3.1199999999999974          8.6961245039956718E-023
   3.1799999999999997          1.5610822196382838E-022
   3.2399999999999984          2.3129662078769248E-022
   3.3000000000000007          3.1131947604549485E-022
   3.3599999999999994          3.9465917008854781E-022
   3.4199999999999982          4.7948531510677810E-022
   3.4800000000000004          5.6366085874434554E-022
   3.5399999999999991          6.4475788773249434E-022
   3.5999999999999979          7.2008325088456898E-022
   3.6600000000000001          7.8671558290813887E-022
   3.7199999999999989          8.4155331849891331E-022
   3.7799999999999976          8.8137474532266752E-022
   3.8399999999999999          9.0290940343121616E-022
   3.8999999999999986          9.0292088181100946E-022
   3.9599999999999973          8.7829981125833931E-022
   4.0199999999999996          8.2616657011649946E-022
   4.0799999999999983          7.4398171921035690E-022
   4.1400000000000006          6.2966214034622927E-022
   4.1999999999999993          4.8170087828283991E-022
   4.2599999999999980          2.9928754015470759E-022
   4.3200000000000003          8.2426861885005362E-023
   4.3799999999999990         -1.6794979948435824E-022
   4.4399999999999977         -4.4988144809812164E-022
   4.5000000000000000         -7.6028885995608476E-022
   4.5599999999999987         -1.0949037847931853E-021
   4.6199999999999974         -1.4482204191806941E-021
   4.6799999999999997         -1.8134735305711635E-021
   4.7399999999999984         -2.1826467009680626E-021
   4.7999999999999972         -2.5465150368704192E-021
   4.8599999999999994         -2.8947259749264144E-021
   4.9199999999999982         -3.2159196412337340E-021
   4.9800000000000004         -3.4978929277781674E-021
   5.0399999999999991         -3.7278064183417184E-021
   5.0999999999999979         -3.8924353548567443E-021
   5.1600000000000001         -3.9784649039602192E-021
   5.2199999999999989         -3.9728249558189020E-021
   5.2799999999999976         -3.8630631332994694E-021
   5.3399999999999999         -3.6377503795954704E-021
   5.3999999999999986         -3.2869130480233060E-021
   5.4599999999999973         -2.8024836361656926E-021
   5.5199999999999996         -2.1787592016843832E-021
   5.5799999999999983         -1.4128602690959142E-021
   5.6400000000000006         -5.0517541665284577E-022
   5.6999999999999993          5.4022176198267805E-022
   5.7599999999999980          1.7151936630857171E-021
   5.8200000000000003          3.0072192688238024E-021
   5.8799999999999990          4.3991416734428595E-021
   5.9399999999999977          5.8690035433077190E-021
   6.0000000000000000          7.3899826032811529E-021
   6.0599999999999987          8.9304404951733081E-021
   6.1199999999999974          1.0454106503113329E-020
   6.1799999999999997          1.1920391082213534E-020
   6.2399999999999984          1.3284854450868546E-020
   6.2999999999999972          1.4499830283518479E-020
   6.3599999999999994          1.5515205149591151E-020
   6.4199999999999982          1.6279359069068635E-020
   6.4800000000000004          1.6740258783214584E-020
   6.5399999999999991          1.6846704184529167E-020
   6.5999999999999979          1.6549695839717012E-020
   6.6600000000000001          1.5803934090536636E-020
   6.7199999999999989          1.4569396882737924E-020
   6.7799999999999976          1.2812987249775565E-020
   6.8399999999999999          1.0510219803989694E-020
   6.8999999999999986          7.6468909794290406E-021
   6.9599999999999973          4.2207134574964884E-021
   7.0199999999999996          2.4284562308769807E-022
   7.0799999999999983         -4.2607041047061830E-021
   7.1400000000000006         -9.2478794698377434E-021
   7.1999999999999993         -1.4659608890939361E-020
   7.2599999999999980         -2.0419150336664910E-020
   7.3200000000000003         -2.6431761059531539E-020
   7.3799999999999990         -3.2584782446698474E-020
   7.4399999999999977         -3.8748157399937021E-020
   7.5000000000000000         -4.4775423932895626E-020
   7.5599999999999987         -5.0505225395054577E-020
   7.6199999999999974         -5.5763348963034657E-020
   7.6799999999999997         -6.0365333576802366E-020
   7.7399999999999984         -6.4119600427959777E-020
   7.7999999999999972         -6.6831145103657921E-020
   7.8599999999999994         -6.8305734138449097E-020
   7.9199999999999982         -6.8354590608568232E-020
   7.9800000000000004         -6.6799481647910308E-020
   8.0399999999999991         -6.3478172724051228E-020
   8.1000000000000014         -5.8250133221463331E-020
   8.1599999999999966         -5.1002402600680402E-020
   8.2199999999999989         -4.1655502615980999E-020
   8.2800000000000011         -3.0169227773156708E-020
   8.3399999999999963         -1.6548238074871302E-020
   8.3999999999999986         -8.4721894656121834E-022
   8.4600000000000009          1.6824504598569647E-020
   8.5199999999999960          3.6299098783707002E-020
   8.5799999999999983          5.7347240710319762E-020
   8.6400000000000006          7.9676199762356854E-020