  -24.000000000000000          0.0000000000000000     
  -23.940000000000001          0.0000000000000000     
  -23.879999999999999          0.0000000000000000     
  -23.820000000000000          0.0000000000000000     
  -23.760000000000002          0.0000000000000000     
  -23.699999999999999          0.0000000000000000     
  -23.640000000000001          0.0000000000000000     
  -23.579999999999998          0.0000000000000000     
  -23.520000000000000          0.0000000000000000     
  -23.460000000000001          0.0000000000000000     
  -23.399999999999999          0.0000000000000000     
  -23.340000000000000          0.0000000000000000     
  -23.280000000000001          0.0000000000000000     
  -23.219999999999999          0.0000000000000000     
  -23.160000000000000          0.0000000000000000     
  -23.100000000000001          3.0554343408786517E-040
  -23.039999999999999          9.5949499390291470E-040
  -22.980000000000000          2.1649646171824378E-039
  -22.920000000000002          5.1103159953516930E-039
  -22.859999999999999          1.2595284189783586E-038
  -22.800000000000001          3.2710582362067361E-038
  -22.739999999999998          8.3521196504737672E-038
  -22.680000000000000          2.0655224753314748E-037
  -22.620000000000001          4.9044524123332627E-037
  -22.559999999999999          1.1120406829714833E-036
  -22.500000000000000          2.4211253547136879E-036
  -22.440000000000001          5.0592074211400419E-036
  -22.379999999999999          1.0198272026937312E-035
  -22.320000000000000          1.9868094178566090E-035
  -22.260000000000002          3.7463595889156842E-035
  -22.199999999999999          6.8627051429427619E-035
  -22.140000000000001          1.2219702130982714E-034
  -22.079999999999998          2.1166089881490814E-034
  -22.020000000000000          3.5704437911772707E-034
  -21.960000000000001          5.8708797565649117E-034
  -21.899999999999999          9.4170413573747787E-034
  -21.840000000000000          1.4742627837543025E-033
  -21.780000000000001          2.2532934479644778E-033
  -21.719999999999999          3.3625353392969845E-033
  -21.660000000000000          4.8979403273707864E-033
  -21.600000000000001          6.9595876098388675E-033
  -21.539999999999999          9.6358422159927623E-033
  -21.480000000000000          1.2976151028193363E-032
  -21.420000000000002          1.6948297163728749E-032
  -21.359999999999999          2.1375049966645046E-032
  -21.300000000000001          2.5844943212291089E-032
  -21.240000000000002          2.9591926573929305E-032
  -21.180000000000000          3.1339500369576311E-032
  -21.120000000000001          2.9107063273405330E-032
  -21.059999999999999          1.9979156777840351E-032
  -21.000000000000000         -1.5519296043145200E-034
  -20.940000000000001         -3.6880165942228438E-032
  -20.879999999999999         -9.7522976968260457E-032
  -20.820000000000000         -1.9137931188764788E-031
  -20.760000000000002         -3.2984301371465776E-031
  -20.699999999999999         -5.2636949448643556E-031
  -20.640000000000001         -7.9618521542029909E-031
  -20.579999999999998         -1.1556367261857768E-030
  -20.520000000000000         -1.6210554210676078E-030
  -20.460000000000001         -2.2070031454249266E-030
  -20.399999999999999         -2.9237611908205180E-030
  -20.340000000000000         -3.7739343458336107E-030
  -20.280000000000001         -4.7480638685778407E-030
  -20.219999999999999         -5.8192047305439622E-030
  -20.160000000000000         -6.9364824443650287E-030
  -20.100000000000001         -8.0177674228502742E-030
  -20.039999999999999         -8.9417433456561245E-030
  -19.980000000000000         -9.5398276371185489E-030
  -19.920000000000002         -9.5886332816270391E-030
  -19.859999999999999         -8.8038924347374395E-030
  -19.800000000000001         -6.8370587313803096E-030
  -19.740000000000002         -3.2760694198950965E-030
  -19.680000000000000          2.3479412261809537E-030
  -19.620000000000001          1.0546032964131533E-029
  -19.560000000000002          2.1846773017867516E-029
  -19.500000000000000          3.6759278715593571E-029
  -19.440000000000001          5.5721992630295191E-029
  -19.379999999999999          7.9035451133615576E-029
  -19.320000000000000          1.0677796500154257E-028
  -19.259999999999998          1.3870418105127075E-028
  -19.199999999999999          1.7412754534764457E-028
  -19.140000000000001          2.1178977376529687E-028
  -19.079999999999998          2.4972229275746306E-028
  -19.020000000000000          2.8510716529440921E-028
  -18.960000000000001          3.1414797592889043E-028
  -18.899999999999999          3.3196435674171488E-028
  -18.840000000000000          3.3252660762160938E-028
  -18.780000000000001          3.0865070479165415E-028
  -18.719999999999999          2.5207618759149344E-028
  -18.660000000000000          1.5365148269783547E-028
  -18.600000000000001          3.6530659557763215E-030
  -18.539999999999999         -2.0773691444793019E-028
  -18.480000000000000         -4.8977013910824688E-028
  -18.420000000000002         -8.5027216674157840E-028
  -18.359999999999999         -1.2945700774184342E-027
  -18.300000000000001         -1.8242094089306951E-027
  -18.240000000000002         -2.4354731201661561E-027
  -18.180000000000000         -3.1177350161193315E-027
  -18.120000000000001         -3.8517021579565369E-027
  -18.060000000000002         -4.6076236975503717E-027
  -18.000000000000000         -5.3435708439740458E-027
  -17.940000000000001         -6.0039296853336953E-027
  -17.879999999999999         -6.5182632817890513E-027
  -17.820000000000000         -6.8007466734865235E-027
  -17.759999999999998         -6.7503881922410744E-027
  -17.699999999999999         -6.2522791254835711E-027
  -17.640000000000001         -5.1801231328305051E-027
  -17.579999999999998         -3.4002857464021863E-027
  -17.520000000000000         -7.7759973727702862E-028
  -17.460000000000001          2.8168800509751128E-027
  -17.399999999999999          7.4960458498714945E-027
  -17.340000000000000          1.3344767944989840E-026
  -17.280000000000001          2.0405865905967945E-026
  -17.219999999999999          2.8664204691400651E-026
  -17.160000000000000          3.8029318852733785E-026
  -17.100000000000001          4.8317069833391474E-026
  -17.039999999999999          5.9231189353713835E-026
  -16.980000000000000          7.0345676893016855E-026
  -16.920000000000002          8.1089331993742479E-026
  -16.859999999999999          9.0733867590368318E-026
  -16.800000000000001          9.8387395073417354E-026
  -16.740000000000002          1.0299508088923790E-025
  -16.680000000000000          1.0334905804372025E-025
  -16.620000000000001          9.8109570529676731E-026
  -16.560000000000002          8.5839513603733407E-026
  -16.500000000000000          6.5054069995154239E-026
  -16.440000000000001          3.4286993960619797E-026
  -16.379999999999999         -7.8253130020183741E-027
  -16.320000000000000         -6.2441672908827055E-026
  -16.260000000000002         -1.3039633409385780E-025
  -16.199999999999999         -2.1206302348979390E-025
  -16.140000000000001         -3.0720564044186306E-025
  -16.079999999999998         -4.1481981395128997E-025
  -16.020000000000000         -5.3297086434951488E-025
  -15.960000000000001         -6.5863559638366981E-025
  -15.900000000000000         -7.8755725420475216E-025
  -15.840000000000000         -9.1412401766671027E-025
  -15.780000000000001         -1.0312832433403147E-024
  -15.720000000000001         -1.1305056651046786E-024
  -15.660000000000000         -1.2018130610868236E-024
  -15.600000000000000         -1.2338851664567181E-024
  -15.540000000000001         -1.2142603825394907E-024
  -15.480000000000000         -1.1296437165780537E-024
  -15.420000000000000         -9.6633471613069351E-025
  -15.359999999999999         -7.1078409115501337E-025
  -15.300000000000001         -3.5028436243143313E-025
  -15.240000000000000          1.2620489044084437E-025
  -15.180000000000000          7.2710410943574022E-025
  -15.120000000000001          1.4571457892334864E-024
  -15.060000000000000          2.3162150211388437E-024
  -15.000000000000000          3.2981291902303563E-024
  -14.940000000000000          4.3894010034957006E-024
  -14.880000000000001          5.5680338067169730E-024
  -14.820000000000000          6.8024169403757278E-024
  -14.760000000000000          8.0503942177026970E-024
  -14.700000000000001          9.2585821760554984E-024
  -14.640000000000001          1.0362040437006696E-023
  -14.580000000000000          1.1284377918827984E-023
  -14.520000000000000          1.1938399935759752E-023
  -14.460000000000001          1.2227388117538439E-023
  -14.400000000000000          1.2047099536348230E-023
  -14.340000000000000          1.1288570096285264E-023
  -14.280000000000001          9.8417728799354807E-024
  -14.220000000000001          7.6001694654483171E-024
  -14.160000000000000          4.4661606065071189E-024
  -14.100000000000000          3.5739601968018206E-025
  -14.040000000000001         -4.7861328187530424E-024
  -13.980000000000000         -1.0994344232298569E-023
  -13.920000000000000         -1.8258848257508578E-023
  -13.860000000000001         -2.6524509105540530E-023
  -13.800000000000001         -3.5681073665245971E-023
  -13.740000000000000         -4.5555278026238892E-023
  -13.680000000000000         -5.5903800223747616E-023
  -13.620000000000001         -6.6407586566741420E-023
  -13.560000000000000         -7.6668061206546229E-023
  -13.500000000000000         -8.6205765740376551E-023
  -13.440000000000001         -9.4462023863643516E-023
  -13.380000000000001         -1.0080419815471161E-022
  -13.320000000000000         -1.0453503076046764E-022
  -13.260000000000000         -1.0490666691463752E-022
  -13.200000000000001         -1.0113961598800780E-022
  -13.140000000000001         -9.2447083572329872E-023
  -13.080000000000000         -7.8064679710389970E-023
  -13.020000000000000         -5.7285499720920584E-023
  -12.960000000000001         -2.9500348233520489E-023
  -12.900000000000000          5.7575988664490897E-024
  -12.840000000000000          4.8764307549125127E-023
  -12.780000000000001          9.9553860878354914E-023
  -12.720000000000001          1.5786627609297815E-022
  -12.660000000000000          2.2309591848245142E-022
  -12.600000000000000          2.9424273691427182E-022
  -12.540000000000001          3.6986860408465936E-022
  -12.480000000000000          4.4806135434817733E-022
  -12.420000000000000          5.2640977566383334E-022
  -12.360000000000001          6.0199215379780327E-022
  -12.300000000000001          6.7138176164675180E-022
  -12.240000000000000          7.3067223967853114E-022
  -12.180000000000000          7.7552576339430478E-022
  -12.120000000000001          8.0124686749616456E-022
  -12.060000000000000          8.0288354405673730E-022
  -12.000000000000000          7.7535774499216603E-022
  -11.940000000000001          7.1362577925660200E-022
  -11.880000000000001          6.1286840835363113E-022
  -11.820000000000000          4.6870928191403558E-022
  -11.760000000000000          2.7745972012460061E-022
  -11.700000000000001          3.6385041660380279E-023
  -11.640000000000001         -2.5601237884058517E-022
  -11.580000000000000         -5.9969997229117124E-022
  -11.520000000000000         -9.9282197528542368E-022
  -11.460000000000001         -1.4314145273491208E-021
  -11.400000000000000         -1.9091422713898983E-021
  -11.340000000000000         -2.4170686978686782E-021
  -11.280000000000001         -2.9434740544449743E-021
  -11.220000000000001         -3.4737372211783152E-021
  -11.160000000000000         -3.9902952297435023E-021
  -11.100000000000000         -4.4726967126408795E-021
  -11.040000000000001         -4.8977637902176770E-021
  -10.980000000000000         -5.2398763239659054E-021
  -10.920000000000000         -5.4713906759305138E-021
  -10.860000000000001         -5.5632015941862244E-021
  -10.800000000000001         -5.4854555245853228E-021
  -10.740000000000000         -5.2084133782829180E-021
  -10.680000000000000         -4.7034661708371285E-021
  -10.620000000000001         -3.9442883766039531E-021
  -10.560000000000000         -2.9081224392290015E-021
  -10.500000000000000         -1.5771695965729222E-021
  -10.440000000000001          5.9940820460710306E-023
  -10.380000000000001          2.0066342452487784E-021
  -10.320000000000000          4.2568712447596405E-021
  -10.260000000000000          6.7936757166994140E-021
  -10.200000000000001          9.5877587027241628E-021
  -10.140000000000001          1.2596304382779981E-020
  -10.080000000000000          1.5761990207655414E-020
  -10.020000000000001          1.9012291775788624E-020
  -9.9600000000000009          2.2259165336640614E-020
  -9.9000000000000004          2.5399161068294343E-020
  -9.8399999999999999          2.8314042992759690E-020
  -9.7800000000000011          3.0871981884115268E-020
  -9.7200000000000006          3.2929361015302924E-020
  -9.6600000000000001          3.4333260825403189E-020
  -9.6000000000000014          3.4924637779875409E-020
  -9.5400000000000009          3.4542201146311426E-020
  -9.4800000000000004          3.3027020783908999E-020
  -9.4199999999999999          3.0227781959224882E-020
  -9.3600000000000012          2.6006675734529602E-020
  -9.3000000000000007          2.0245833443331524E-020
  -9.2400000000000002          1.2854176154809321E-020
  -9.1799999999999997          3.7745618137728987E-021
  -9.1200000000000010         -7.0089449423870823E-021
  -9.0600000000000005         -1.9463899754458118E-020
  -9.0000000000000000         -3.3502596510945607E-020
  -8.9400000000000013         -4.8975746774729516E-020
  -8.8800000000000008         -6.5667012152438532E-020
  -8.8200000000000003         -8.3288634691971010E-020
  -8.7599999999999998         -1.0147849438624843E-019
  -8.7000000000000011         -1.1979889294572504E-019
  -8.6400000000000006         -1.3773733462397811E-019
  -8.5800000000000001         -1.5470963867348482E-019
  -8.5200000000000014         -1.7006555593899678E-019
  -8.4600000000000009         -1.8309718916720703E-019
  -8.4000000000000004         -1.9305031859838244E-019
  -8.3399999999999999         -1.9913875630578728E-019
  -8.2800000000000011         -2.0056180361492353E-019
  -8.2200000000000006         -1.9652475495380652E-019
  -8.1600000000000001         -1.8626227197520116E-019
  -8.1000000000000014         -1.6906435095219376E-019
  -8.0400000000000009         -1.4430477086111174E-019
  -7.9800000000000004         -1.1147117964926020E-019
  -7.9200000000000017         -7.0196639026226582E-020
  -7.8599999999999994         -2.0291610184341534E-020
  -7.8000000000000007          3.8224157382425437E-020
  -7.7400000000000020          1.0509097784653957E-019
  -7.6799999999999997          1.7978057993944197E-019
  -7.6200000000000010          2.6147077925608326E-019
  -7.5600000000000023          3.4902445207391171E-019
  -7.5000000000000000          4.4097388229804165E-019
  -7.4400000000000013          5.3551205723860422E-019
  -7.3799999999999990          6.3049170815664727E-019
  -7.3200000000000003          7.2343320224980151E-019
  -7.2600000000000016          8.1154253032542561E-019
  -7.1999999999999993          8.9174019201468174E-019
  -7.1400000000000006          9.6070170100355541E-019
  -7.0800000000000018          1.0149098693601529E-018
  -7.0199999999999996          1.0507199830043473E-018
  -6.9600000000000009          1.0644366036291827E-018
  -6.9000000000000021          1.0524029888764052E-018
  -6.8399999999999999          1.0111010989695663E-018
  -6.7800000000000011          9.3726234159269794E-019
  -6.7199999999999989          8.2798648242684017E-019
  -6.6600000000000001          6.8086748819831167E-019
  -6.6000000000000014          4.9412367978440150E-019
  -6.5399999999999991          2.6672982015367264E-019
  -6.4800000000000004         -1.4528822789837884E-021
  -6.4200000000000017         -3.0955100026095254E-019
  -6.3599999999999994         -6.5556209282946670E-019
  -6.3000000000000007         -1.0362508898166711E-018
  -6.2400000000000020         -1.4470621333130062E-018
  -6.1799999999999997         -1.8820540998444430E-018
  -6.1200000000000010         -2.3338593068223854E-018
  -6.0600000000000023         -2.7936738625467261E-018
  -6.0000000000000000         -3.2512803053699241E-018
  -5.9400000000000013         -3.6951087947866362E-018
  -5.8799999999999990         -4.1123389487129982E-018
  -5.8200000000000003         -4.4890435941720787E-018
  -5.7600000000000016         -4.8103811404982391E-018
  -5.6999999999999993         -5.0608295251856535E-018
  -5.6400000000000006         -5.2244704463046671E-018
  -5.5800000000000018         -5.2853168407608937E-018
  -5.5199999999999996         -5.2276835620394905E-018
  -5.4600000000000009         -5.0365994049152710E-018
  -5.4000000000000021         -4.6982508711417011E-018
  -5.3399999999999999         -4.2004571055502897E-018
  -5.2800000000000011         -3.5331657054547226E-018
  -5.2200000000000024         -2.6889586172604322E-018
  -5.1600000000000001         -1.6635619784257603E-018
  -5.1000000000000014         -4.5634603066233516E-019
  -5.0399999999999991          9.2919695499158357E-019
  -4.9800000000000004          2.4850113177150715E-018
  -4.9200000000000017          4.1980851583736663E-018
  -4.8599999999999994          6.0501210000697522E-018
  -4.8000000000000007          8.0172870606861110E-018
  -4.7400000000000020          1.0070062314391123E-017
  -4.6799999999999997          1.2173189044713445E-017
  -4.6200000000000010          1.4285745772799111E-017
  -4.5600000000000023          1.6361359049627511E-017
  -4.5000000000000000          1.8348554531346099E-017
  -4.4400000000000013          2.0191266473965960E-017
  -4.3799999999999990          2.1829502658438080E-017
  -4.3200000000000003          2.3200178987670819E-017
  -4.2600000000000016          2.4238116560613819E-017
  -4.1999999999999993          2.4877200674448512E-017
  -4.1400000000000006          2.5051695414154149E-017
  -4.0800000000000018          2.4697705605117916E-017
  -4.0199999999999996          2.3754766795210151E-017
  -3.9600000000000009          2.2167550253867249E-017
  -3.9000000000000021          1.9887656325424148E-017
  -3.8399999999999999          1.6875465890224484E-017
  -3.7800000000000011          1.3102032234794646E-017
  -3.7200000000000024          8.5509498530900561E-018
  -3.6600000000000001          3.2201990402960983E-018
  -3.6000000000000014         -2.8761166412011556E-018
  -3.5399999999999991         -9.7061439984779202E-018
  -3.4800000000000004         -1.7218853340656375E-017
  -3.4200000000000017         -2.5342821123308011E-017
  -3.3599999999999994         -3.3985303145841865E-017
  -3.3000000000000007         -4.3031621347122309E-017
  -3.2400000000000020         -5.2344934190163748E-017
  -3.1799999999999997         -6.1766413600322686E-017
  -3.1200000000000010         -7.1115883437528965E-017
  -3.0600000000000023         -8.0192955057805127E-017
  -3.0000000000000000         -8.8778686966474942E-017
  -2.9400000000000013         -9.6637785713783739E-017
  -2.8800000000000026         -1.0352139409764736E-016
  -2.8200000000000003         -1.0917044340574254E-016
  -2.7600000000000016         -1.1331954401815004E-016
  -2.6999999999999993         -1.1570146826125644E-016
  -2.6400000000000006         -1.1605216205905652E-016
  -2.5800000000000018         -1.1411621635843929E-016
  -2.5199999999999996         -1.0965280857271429E-016
  -2.4600000000000009         -1.0244199660138576E-016
  -2.4000000000000021         -9.2291309447638019E-017
  -2.3399999999999999         -7.9042562693084251E-017
  -2.2800000000000011         -6.2578735419710934E-017
  -2.2200000000000024         -4.2830851316628547E-017
  -2.1600000000000001         -1.9784720650280880E-017
  -2.1000000000000014          6.5126153824482578E-018
  -2.0399999999999991          3.5946904773004553E-017
  -1.9800000000000004          6.8331224348379908E-017
  -1.9200000000000017          1.0340133123711982E-016
  -1.8599999999999994          1.4081189030822018E-016
  -1.8000000000000007          1.8013378959195685E-016
  -1.7400000000000020          2.2085270765513725E-016
  -1.6799999999999997          2.6236902429144419E-016
  -1.6200000000000010          3.0399930918105207E-016
  -1.5600000000000023          3.4497941568103939E-016
  -1.5000000000000000          3.8446947319090461E-016
  -1.4400000000000013          4.2156068934136377E-016
  -1.3800000000000026          4.5528407166089973E-016
  -1.3200000000000003          4.8462123514320562E-016
  -1.2600000000000016          5.0851723937321099E-016
  -1.1999999999999993          5.2589542716719483E-016
  -1.1400000000000006          5.3567416567913412E-016
  -1.0800000000000018          5.3678559957534335E-016
  -1.0199999999999996          5.2819597286581573E-016
 -0.96000000000000085          5.0892788236086540E-016
 -0.90000000000000213          4.7808335972523566E-016
 -0.83999999999999986          4.3486860363818465E-016
 -0.78000000000000114          3.7861918634360532E-016
 -0.72000000000000242          3.0882576095569903E-016
 -0.66000000000000014          2.2515981951438840E-016
 -0.60000000000000142          1.2749920472430307E-016
 -0.53999999999999915          1.5952647948053387E-017
 -0.48000000000000043         -1.0911698889592807E-016
 -0.42000000000000171         -2.4707146619925901E-016
 -0.35999999999999943         -3.9697830156369286E-016
 -0.30000000000000071         -5.5759461433197554E-016
 -0.24000000000000199         -7.2735518553449619E-016
 -0.17999999999999972         -9.0436424327357258E-016
 -0.12000000000000099         -1.0863919119145261E-015
  -6.0000000000002274E-002    -1.2708761859492499E-015
   0.0000000000000000         -1.4549304755981615E-015
   5.9999999999998721E-002    -1.6353574956657224E-015
  0.11999999999999744         -1.8086701337046827E-015
  0.17999999999999972         -1.9711181565931933E-015
  0.23999999999999844         -2.1187236574048073E-015
  0.30000000000000071         -2.2473228982712585E-015
  0.35999999999999943         -2.3526156240705013E-015
  0.41999999999999815         -2.4302222389287536E-015
  0.48000000000000043         -2.4757478392631314E-015
  0.53999999999999915         -2.4848534128609097E-015
  0.59999999999999787         -2.4533325294796180E-015
  0.66000000000000014         -2.3771952128429826E-015
  0.71999999999999886         -2.2527551152450743E-015
  0.77999999999999758         -2.0767224003244028E-015
  0.83999999999999986         -1.8462977846008680E-015
  0.89999999999999858         -1.5592702398591346E-015
  0.96000000000000085         -1.2141130504171859E-015
   1.0199999999999996         -8.1007985327137873E-016
   1.0799999999999983         -3.4729694365558149E-016
   1.1400000000000006          1.7314824916481379E-016
   1.1999999999999993          7.4912651068409539E-016
   1.2599999999999980          1.3773940553384516E-015
   1.3200000000000003          2.0535298287043142E-015
   1.3799999999999990          2.7718866638498593E-015
   1.4399999999999977          3.5255561323687643E-015
   1.5000000000000000          4.3063499516697111E-015
   1.5599999999999987          5.1048012254264340E-015
   1.6199999999999974          5.9101831644314186E-015
   1.6799999999999997          6.7105519958784004E-015
   1.7399999999999984          7.4928134491507862E-015
   1.8000000000000007          8.2428107413370863E-015
   1.8599999999999994          8.9454396215001529E-015
   1.9199999999999982          9.5847913907020600E-015
   1.9800000000000004          1.0144317498330362E-014
   2.0399999999999991          1.0607022843004675E-014
   2.0999999999999979          1.0955684147756901E-014
   2.1600000000000001          1.1173091277361420E-014
   2.2199999999999989          1.1242312120072417E-014
   2.2799999999999976          1.1146979203846736E-014
   2.3399999999999999          1.0871588897543509E-014
   2.3999999999999986          1.0401823535699530E-014
   2.4599999999999973          9.7248811319431428E-015
   2.5199999999999996          8.8298090779573299E-015
   2.5799999999999983          7.7078468484051699E-015
   2.6400000000000006          6.3527651658813274E-015
   2.6999999999999993          4.7611950682464950E-015
   2.7599999999999980          2.9329472207620481E-015
   2.8200000000000003          8.7131108507750406E-016
   2.8799999999999990         -1.4166708160176054E-015
   2.9399999999999977         -3.9199583076825399E-015
   3.0000000000000000         -6.6233062974603394E-015
   3.0599999999999987         -9.5071025801854404E-015
   3.1199999999999974         -1.2547256085848841E-014
   3.1799999999999997         -1.5715136630746807E-014
   3.2399999999999984         -1.8977580022924069E-014
   3.3000000000000007         -2.2296955240092208E-014
   3.3599999999999994         -2.5631305636576936E-014
   3.4199999999999982         -2.8934561107444631E-014
   3.4800000000000004         -3.2156828847831794E-014
   3.5399999999999991         -3.5244766351316980E-014
   3.5999999999999979         -3.8142024282241094E-014
   3.6600000000000001         -4.0789784394118420E-014
   3.7199999999999989         -4.3127363900345174E-014
   3.7799999999999976         -4.5092896818240884E-014
   3.8399999999999999         -4.6624110764369538E-014
   3.8999999999999986         -4.7659130476268386E-014
   3.9599999999999973         -4.8137379903957399E-014
   4.0199999999999996         -4.8000517707403455E-014
   4.0799999999999983         -4.7193432860439272E-014
   4.1400000000000006         -4.5665251698748118E-014
   4.1999999999999993         -4.3370409267493271E-014
   4.2599999999999980         -4.0269671075337830E-014
   4.3200000000000003         -3.6331218049381831E-014
   4.3799999999999990         -3.1531664688329036E-014
   4.4399999999999977         -2.5857072278507229E-014
   4.5000000000000000         -1.9303895372279027E-014
   4.5599999999999987         -1.1879886136751266E-014
   4.6199999999999974         -3.6048989688028105E-015
   4.6799999999999997          5.4884105966828615E-015
   4.7399999999999984          1.5353963079190653E-014
   4.7999999999999972          2.5931805061392686E-014
   4.8599999999999994          3.7147770635047678E-014
   4.9199999999999982          4.8913320131085306E-014
   4.9800000000000004          6.1125555879944968E-014
   5.0399999999999991          7.3667399963369381E-014
   5.0999999999999979          8.6407986604374881E-014
   5.1600000000000001          9.9203245501895446E-014
   5.2199999999999989          1.1189669920573159E-013
   5.2799999999999976          1.2432046631944078E-013
   5.3399999999999999          1.3629648359773159E-013
   5.3999999999999986          1.4763794282834885E-013
   5.4599999999999973          1.5815093777819618E-013
   5.5199999999999996          1.6763628099077415E-013
   5.5799999999999983          1.7589157517365459E-013
   5.6400000000000006          1.8271341295536799E-013
   5.6999999999999993          1.8789974103874423E-013
   5.7599999999999980          1.9125243616917902E-013
   5.8200000000000003          1.9257989774786327E-013
   5.8799999999999990          1.9169985087174514E-013
   5.9399999999999977          1.8844214713682221E-013
   6.0000000000000000          1.8265166466226136E-013
   6.0599999999999987          1.7419116913288875E-013
   6.1199999999999974          1.6294422937912605E-013
   6.1799999999999997          1.4881800661040715E-013
   6.2399999999999984          1.3174605721309654E-013
   6.2999999999999972          1.1169085064248097E-013
   6.3599999999999994          8.8646325003139230E-014
   6.4199999999999982          6.2640073904977019E-014
   6.4800000000000004          3.3735457346069588E-014
   6.5399999999999991          2.0332850902353382E-015
   6.5999999999999979         -3.2326704019766475E-014
   6.6600000000000001         -6.9164709682824365E-014
   6.7199999999999989         -1.0826016269932953E-013
   6.7799999999999976         -1.4935129275107246E-013
   6.8399999999999999         -1.9213532732030834E-013
   6.8999999999999986         -2.3626895154310519E-013
   6.9599999999999973         -2.8136934995197265E-013
   7.0199999999999996         -3.2701558816688163E-013
   7.0799999999999983         -3.7275074323669356E-013
   7.1400000000000006         -4.1808428978339792E-013
   7.1999999999999993         -4.6249510432793831E-013
   7.2599999999999980         -5.0543495644573255E-013
   7.3200000000000003         -5.4633251618516172E-013
   7.3799999999999990         -5.8459782681588602E-013
   7.4399999999999977         -6.1962712661665030E-013
   7.5000000000000000         -6.5080836703238036E-013
   7.5599999999999987         -6.7752685704605455E-013
   7.6199999999999974         -6.9917145140299401E-013
   7.6799999999999997         -7.1514101930121369E-013
   7.7399999999999984         -7.2485111711960159E-013
   7.7999999999999972         -7.2774103256512223E-013
   7.8599999999999994         -7.2328091232992557E-013
   7.9199999999999982         -7.1097893557374834E-013
   7.9800000000000004         -6.9038871885907335E-013
   8.0399999999999991         -6.6111648445578502E-013
   8.1000000000000014         -6.2282843934865051E-013
   8.1599999999999966         -5.7525754917708395E-013
   8.2199999999999989         -5.1821038150678959E-013
   8.2800000000000011         -4.5157365955963748E-013
   8.3399999999999963         -3.7532024196557452E-013
   8.3999999999999986         -2.8951471074958408E-013
   8.4600000000000009         -1.9431848618795830E-013
   8.5199999999999960         -8.9994103884654434E-014
   8.5799999999999983          2.3090948070565030E-014
   8.6400000000000006          1.4446130961736359E-013