  -24.000000000000000          0.0000000000000000     
  -23.940000000000001          0.0000000000000000     
  -23.879999999999999          0.0000000000000000     
  -23.820000000000000          0.0000000000000000     
  -23.760000000000002          0.0000000000000000     
  -23.699999999999999          0.0000000000000000     
  -23.640000000000001          0.0000000000000000     
  -23.579999999999998          0.0000000000000000     
  -23.520000000000000          0.0000000000000000     
  -23.460000000000001          0.0000000000000000     
  -23.399999999999999          0.0000000000000000     
  -23.340000000000000          0.0000000000000000     
  -23.280000000000001          0.0000000000000000     
  -23.219999999999999          0.0000000000000000     
  -23.160000000000000          0.0000000000000000     
  -23.100000000000001          0.0000000000000000     
  -23.039999999999999          0.0000000000000000     
  -22.980000000000000          0.0000000000000000     
  -22.920000000000002          0.0000000000000000     
  -22.859999999999999          0.0000000000000000     
  -22.800000000000001          0.0000000000000000     
  -22.739999999999998          0.0000000000000000     
  -22.680000000000000          0.0000000000000000     
  -22.620000000000001          0.0000000000000000     
  -22.559999999999999          0.0000000000000000     
  -22.500000000000000          0.0000000000000000     
  -22.440000000000001          0.0000000000000000     
  -22.379999999999999          0.0000000000000000     
  -22.320000000000000          0.0000000000000000     
  -22.260000000000002          0.0000000000000000     
  -22.199999999999999          0.0000000000000000     
  -22.140000000000001          0.0000000000000000     
  -22.079999999999998          0.0000000000000000     
  -22.020000000000000          0.0000000000000000     
  -21.960000000000001          0.0000000000000000     
  -21.899999999999999          0.0000000000000000     
  -21.840000000000000          0.0000000000000000     
  -21.780000000000001          0.0000000000000000     
  -21.719999999999999          0.0000000000000000     
  -21.660000000000000          0.0000000000000000     
  -21.600000000000001          0.0000000000000000     
  -21.539999999999999          0.0000000000000000     
  -21.480000000000000          0.0000000000000000     
  -21.420000000000002          0.0000000000000000     
  -21.359999999999999          0.0000000000000000     
  -21.300000000000001          0.0000000000000000     
  -21.240000000000002          0.0000000000000000     
  -21.180000000000000          0.0000000000000000     
  -21.120000000000001          0.0000000000000000     
  -21.059999999999999          0.0000000000000000     
  -21.000000000000000          0.0000000000000000     
  -20.940000000000001          0.0000000000000000     
  -20.879999999999999          0.0000000000000000     
  -20.820000000000000          0.0000000000000000     
  -20.760000000000002          0.0000000000000000     
  -20.699999999999999          0.0000000000000000     
  -20.640000000000001          0.0000000000000000     
  -20.579999999999998          0.0000000000000000     
  -20.520000000000000          0.0000000000000000     
  -20.460000000000001          0.0000000000000000     
  -20.399999999999999          0.0000000000000000     
  -20.340000000000000          0.0000000000000000     
  -20.280000000000001          0.0000000000000000     
  -20.219999999999999          0.0000000000000000     
  -20.160000000000000          0.0000000000000000     
  -20.100000000000001          0.0000000000000000     
  -20.039999999999999          0.0000000000000000     
  -19.980000000000000          0.0000000000000000     
  -19.920000000000002          0.0000000000000000     
  -19.859999999999999          0.0000000000000000     
  -19.800000000000001          0.0000000000000000     
  -19.740000000000002          0.0000000000000000     
  -19.680000000000000          0.0000000000000000     
  -19.620000000000001          0.0000000000000000     
  -19.560000000000002          0.0000000000000000     
  -19.500000000000000          0.0000000000000000     
  -19.440000000000001          0.0000000000000000     
  -19.379999999999999          0.0000000000000000     
  -19.320000000000000          0.0000000000000000     
  -19.259999999999998          0.0000000000000000     
  -19.199999999999999          0.0000000000000000     
  -19.140000000000001          0.0000000000000000     
  -19.079999999999998          0.0000000000000000     
  -19.020000000000000          0.0000000000000000     
  -18.960000000000001          0.0000000000000000     
  -18.899999999999999          0.0000000000000000     
  -18.840000000000000          0.0000000000000000     
  -18.780000000000001          0.0000000000000000     
  -18.719999999999999          0.0000000000000000     
  -18.660000000000000          0.0000000000000000     
  -18.600000000000001          0.0000000000000000     
  -18.539999999999999          0.0000000000000000     
  -18.480000000000000          0.0000000000000000     
  -18.420000000000002          0.0000000000000000     
  -18.359999999999999          0.0000000000000000     
  -18.300000000000001          0.0000000000000000     
  -18.240000000000002          0.0000000000000000     
  -18.180000000000000          0.0000000000000000     
  -18.120000000000001          0.0000000000000000     
  -18.060000000000002          0.0000000000000000     
  -18.000000000000000          0.0000000000000000     
  -17.940000000000001          0.0000000000000000     
  -17.879999999999999          0.0000000000000000     
  -17.820000000000000          0.0000000000000000     
  -17.759999999999998          0.0000000000000000     
  -17.699999999999999          0.0000000000000000     
  -17.640000000000001          0.0000000000000000     
  -17.579999999999998          0.0000000000000000     
  -17.520000000000000          0.0000000000000000     
  -17.460000000000001          0.0000000000000000     
  -17.399999999999999          0.0000000000000000     
  -17.340000000000000          0.0000000000000000     
  -17.280000000000001          0.0000000000000000     
  -17.219999999999999          0.0000000000000000     
  -17.160000000000000          0.0000000000000000     
  -17.100000000000001          0.0000000000000000     
  -17.039999999999999          0.0000000000000000     
  -16.980000000000000          0.0000000000000000     
  -16.920000000000002          0.0000000000000000     
  -16.859999999999999          0.0000000000000000     
  -16.800000000000001          0.0000000000000000     
  -16.740000000000002          0.0000000000000000     
  -16.680000000000000          0.0000000000000000     
  -16.620000000000001          0.0000000000000000     
  -16.560000000000002          0.0000000000000000     
  -16.500000000000000          0.0000000000000000     
  -16.440000000000001          0.0000000000000000     
  -16.379999999999999          0.0000000000000000     
  -16.320000000000000          0.0000000000000000     
  -16.260000000000002          0.0000000000000000     
  -16.199999999999999          0.0000000000000000     
  -16.140000000000001          0.0000000000000000     
  -16.079999999999998          0.0000000000000000     
  -16.020000000000000          0.0000000000000000     
  -15.960000000000001          0.0000000000000000     
  -15.900000000000000          0.0000000000000000     
  -15.840000000000000          0.0000000000000000     
  -15.780000000000001          0.0000000000000000     
  -15.720000000000001          0.0000000000000000     
  -15.660000000000000          0.0000000000000000     
  -15.600000000000000          0.0000000000000000     
  -15.540000000000001          0.0000000000000000     
  -15.480000000000000          0.0000000000000000     
  -15.420000000000000          0.0000000000000000     
  -15.359999999999999          0.0000000000000000     
  -15.300000000000001          0.0000000000000000     
  -15.240000000000000          0.0000000000000000     
  -15.180000000000000          0.0000000000000000     
  -15.120000000000001          0.0000000000000000     
  -15.060000000000000          0.0000000000000000     
  -15.000000000000000          0.0000000000000000     
  -14.940000000000000          0.0000000000000000     
  -14.880000000000001          0.0000000000000000     
  -14.820000000000000          0.0000000000000000     
  -14.760000000000000          0.0000000000000000     
  -14.700000000000001          0.0000000000000000     
  -14.640000000000001          0.0000000000000000     
  -14.580000000000000          0.0000000000000000     
  -14.520000000000000          0.0000000000000000     
  -14.460000000000001          0.0000000000000000     
  -14.400000000000000          0.0000000000000000     
  -14.340000000000000          0.0000000000000000     
  -14.280000000000001          0.0000000000000000     
  -14.220000000000001          0.0000000000000000     
  -14.160000000000000          0.0000000000000000     
  -14.100000000000000          0.0000000000000000     
  -14.040000000000001          0.0000000000000000     
  -13.980000000000000          0.0000000000000000     
  -13.920000000000000          0.0000000000000000     
  -13.860000000000001          0.0000000000000000     
  -13.800000000000001          0.0000000000000000     
  -13.740000000000000          0.0000000000000000     
  -13.680000000000000          0.0000000000000000     
  -13.620000000000001          0.0000000000000000     
  -13.560000000000000          0.0000000000000000     
  -13.500000000000000          0.0000000000000000     
  -13.440000000000001          0.0000000000000000     
  -13.380000000000001          0.0000000000000000     
  -13.320000000000000          0.0000000000000000     
  -13.260000000000000          0.0000000000000000     
  -13.200000000000001          0.0000000000000000     
  -13.140000000000001          0.0000000000000000     
  -13.080000000000000          0.0000000000000000     
  -13.020000000000000          0.0000000000000000     
  -12.960000000000001          0.0000000000000000     
  -12.900000000000000          0.0000000000000000     
  -12.840000000000000          0.0000000000000000     
  -12.780000000000001          0.0000000000000000     
  -12.720000000000001          0.0000000000000000     
  -12.660000000000000          0.0000000000000000     
  -12.600000000000000          0.0000000000000000     
  -12.540000000000001          0.0000000000000000     
  -12.480000000000000          0.0000000000000000     
  -12.420000000000000          0.0000000000000000     
  -12.360000000000001          0.0000000000000000     
  -12.300000000000001          0.0000000000000000     
  -12.240000000000000          0.0000000000000000     
  -12.180000000000000          0.0000000000000000     
  -12.120000000000001          0.0000000000000000     
  -12.060000000000000          0.0000000000000000     
  -12.000000000000000          0.0000000000000000     
  -11.940000000000001          0.0000000000000000     
  -11.880000000000001          0.0000000000000000     
  -11.820000000000000          0.0000000000000000     
  -11.760000000000000          0.0000000000000000     
  -11.700000000000001          0.0000000000000000     
  -11.640000000000001          0.0000000000000000     
  -11.580000000000000          0.0000000000000000     
  -11.520000000000000          0.0000000000000000     
  -11.460000000000001          0.0000000000000000     
  -11.400000000000000          0.0000000000000000     
  -11.340000000000000          0.0000000000000000     
  -11.280000000000001          0.0000000000000000     
  -11.220000000000001          0.0000000000000000     
  -11.160000000000000          0.0000000000000000     
  -11.100000000000000          0.0000000000000000     
  -11.040000000000001          0.0000000000000000     
  -10.980000000000000          0.0000000000000000     
  -10.920000000000000          0.0000000000000000     
  -10.860000000000001          0.0000000000000000     
  -10.800000000000001          0.0000000000000000     
  -10.740000000000000          0.0000000000000000     
  -10.680000000000000          0.0000000000000000     
  -10.620000000000001          0.0000000000000000     
  -10.560000000000000          0.0000000000000000     
  -10.500000000000000          0.0000000000000000     
  -10.440000000000001          0.0000000000000000     
  -10.380000000000001          0.0000000000000000     
  -10.320000000000000          0.0000000000000000     
  -10.260000000000000          0.0000000000000000     
  -10.200000000000001          0.0000000000000000     
  -10.140000000000001          0.0000000000000000     
  -10.080000000000000          0.0000000000000000     
  -10.020000000000001          0.0000000000000000     
  -9.9600000000000009          0.0000000000000000     
  -9.9000000000000004          0.0000000000000000     
  -9.8399999999999999          0.0000000000000000     
  -9.7800000000000011          0.0000000000000000     
  -9.7200000000000006          0.0000000000000000     
  -9.6600000000000001          0.0000000000000000     
  -9.6000000000000014          0.0000000000000000     
  -9.5400000000000009          0.0000000000000000     
  -9.4800000000000004          0.0000000000000000     
  -9.4199999999999999          0.0000000000000000     
  -9.3600000000000012          0.0000000000000000     
  -9.3000000000000007          0.0000000000000000     
  -9.2400000000000002          0.0000000000000000     
  -9.1799999999999997          0.0000000000000000     
  -9.1200000000000010          0.0000000000000000     
  -9.0600000000000005          0.0000000000000000     
  -9.0000000000000000          0.0000000000000000     
  -8.9400000000000013          0.0000000000000000     
  -8.8800000000000008          0.0000000000000000     
  -8.8200000000000003          0.0000000000000000     
  -8.7599999999999998          0.0000000000000000     
  -8.7000000000000011          0.0000000000000000     
  -8.6400000000000006          0.0000000000000000     
  -8.5800000000000001          0.0000000000000000     
  -8.5200000000000014          0.0000000000000000     
  -8.4600000000000009          0.0000000000000000     
  -8.4000000000000004          0.0000000000000000     
  -8.3399999999999999          0.0000000000000000     
  -8.2800000000000011          0.0000000000000000     
  -8.2200000000000006          0.0000000000000000     
  -8.1600000000000001          0.0000000000000000     
  -8.1000000000000014          0.0000000000000000     
  -8.0400000000000009          0.0000000000000000     
  -7.9800000000000004          0.0000000000000000     
  -7.9200000000000017          0.0000000000000000     
  -7.8599999999999994          0.0000000000000000     
  -7.8000000000000007          0.0000000000000000     
  -7.7400000000000020          0.0000000000000000     
  -7.6799999999999997          0.0000000000000000     
  -7.6200000000000010          0.0000000000000000     
  -7.5600000000000023          0.0000000000000000     
  -7.5000000000000000          0.0000000000000000     
  -7.4400000000000013          0.0000000000000000     
  -7.3799999999999990          0.0000000000000000     
  -7.3200000000000003          0.0000000000000000     
  -7.2600000000000016          0.0000000000000000     
  -7.1999999999999993          0.0000000000000000     
  -7.1400000000000006          0.0000000000000000     
  -7.0800000000000018          0.0000000000000000     
  -7.0199999999999996          0.0000000000000000     
  -6.9600000000000009          0.0000000000000000     
  -6.9000000000000021          0.0000000000000000     
  -6.8399999999999999          0.0000000000000000     
  -6.7800000000000011          0.0000000000000000     
  -6.7199999999999989          0.0000000000000000     
  -6.6600000000000001          0.0000000000000000     
  -6.6000000000000014          0.0000000000000000     
  -6.5399999999999991          0.0000000000000000     
  -6.4800000000000004          0.0000000000000000     
  -6.4200000000000017          0.0000000000000000     
  -6.3599999999999994          0.0000000000000000     
  -6.3000000000000007          0.0000000000000000     
  -6.2400000000000020          0.0000000000000000     
  -6.1799999999999997          0.0000000000000000     
  -6.1200000000000010          0.0000000000000000     
  -6.0600000000000023          0.0000000000000000     
  -6.0000000000000000          0.0000000000000000     
  -5.9400000000000013          0.0000000000000000     
  -5.8799999999999990          0.0000000000000000     
  -5.8200000000000003          0.0000000000000000     
  -5.7600000000000016          0.0000000000000000     
  -5.6999999999999993          0.0000000000000000     
  -5.6400000000000006          0.0000000000000000     
  -5.5800000000000018          0.0000000000000000     
  -5.5199999999999996          0.0000000000000000     
  -5.4600000000000009          0.0000000000000000     
  -5.4000000000000021          0.0000000000000000     
  -5.3399999999999999          0.0000000000000000     
  -5.2800000000000011          0.0000000000000000     
  -5.2200000000000024          0.0000000000000000     
  -5.1600000000000001          0.0000000000000000     
  -5.1000000000000014          0.0000000000000000     
  -5.0399999999999991          0.0000000000000000     
  -4.9800000000000004          0.0000000000000000     
  -4.9200000000000017          0.0000000000000000     
  -4.8599999999999994          0.0000000000000000     
  -4.8000000000000007          0.0000000000000000     
  -4.7400000000000020          0.0000000000000000     
  -4.6799999999999997          0.0000000000000000     
  -4.6200000000000010          0.0000000000000000     
  -4.5600000000000023          0.0000000000000000     
  -4.5000000000000000          0.0000000000000000     
  -4.4400000000000013          0.0000000000000000     
  -4.3799999999999990          0.0000000000000000     
  -4.3200000000000003         -4.1676457608397881E-041
  -4.2600000000000016         -1.1805934931530941E-040
  -4.1999999999999993         -2.3358625875756367E-040
  -4.1400000000000006         -3.9082006227891095E-040
  -4.0800000000000018         -5.9011355398680198E-040
  -4.0199999999999996         -8.4084821341379884E-040
  -3.9600000000000009         -1.1516814100076193E-039
  -3.9000000000000021         -1.5074452563498305E-039
  -3.8399999999999999         -1.8949762791952015E-039
  -3.7800000000000011         -2.3150740925921097E-039
  -3.7200000000000024         -2.7514193691957006E-039
  -3.6600000000000001         -3.1738241505251683E-039
  -3.6000000000000014         -3.5025261283970338E-039
  -3.5399999999999991         -3.7231157541802461E-039
  -3.4800000000000004         -3.9144249751796805E-039
  -3.4200000000000017         -3.7595713843524772E-039
  -3.3599999999999994         -3.2343222795540902E-039
  -3.3000000000000007         -2.2938068978179383E-039
  -3.2400000000000020         -9.1509785368083418E-040
  -3.1799999999999997          9.0617407770493476E-040
  -3.1200000000000010          3.0856622012178433E-039
  -3.0600000000000023          5.3773269452644179E-039
  -3.0000000000000000          7.7628233031400077E-039
  -2.9400000000000013          1.0032409453896194E-038
  -2.8800000000000026          1.2205265467991702E-038
  -2.8200000000000003          1.4023854767683078E-038
  -2.7600000000000016          1.5029829616433075E-038
  -2.6999999999999993          1.5451346418040746E-038
  -2.6400000000000006          1.5404268100573776E-038
  -2.5800000000000018          1.4505516801277808E-038
  -2.5199999999999996          1.2618291366155870E-038
  -2.4600000000000009          9.5257722923846394E-039
  -2.4000000000000021          5.1505792319192073E-039
  -2.3399999999999999         -4.7725681967055424E-040
  -2.2800000000000011         -7.2103107257061983E-039
  -2.2200000000000024         -1.4986282086471947E-038
  -2.1600000000000001         -2.3549742516167581E-038
  -2.1000000000000014         -3.1680644531050411E-038
  -2.0399999999999991         -3.8786616178152389E-038
  -1.9800000000000004         -4.4643600421323450E-038
  -1.9200000000000017         -4.9571164175735032E-038
  -1.8599999999999994         -5.4468275774113555E-038
  -1.8000000000000007         -5.7101950945581308E-038
  -1.7400000000000020         -5.8454548600982594E-038
  -1.6799999999999997         -5.7814216100313977E-038
  -1.6200000000000010         -5.5026176056837557E-038
  -1.5600000000000023         -4.8222594277589329E-038
  -1.5000000000000000         -3.6769900320597533E-038
  -1.4400000000000013         -2.0815165425225580E-038
  -1.3800000000000026         -2.0112258450661344E-040
  -1.3200000000000003          2.4997669338038058E-038
  -1.2600000000000016          5.5522928453155471E-038
  -1.1999999999999993          8.8059589068394213E-038
  -1.1400000000000006          1.2276843379525374E-037
  -1.0800000000000018          1.5685694214632737E-037
  -1.0199999999999996          1.8727711352797362E-037
 -0.96000000000000085          2.1543683790532898E-037
 -0.90000000000000213          2.3803220801064993E-037
 -0.83999999999999986          2.5296097359219122E-037
 -0.78000000000000114          2.5930399289643750E-037
 -0.72000000000000242          2.5227177287648077E-037
 -0.66000000000000014          2.2821267135832447E-037
 -0.60000000000000142          1.8723063263900111E-037
 -0.53999999999999915          1.2852922375427389E-037
 -0.48000000000000043          5.1287676045430253E-038
 -0.42000000000000171         -4.5977619863318986E-038
 -0.35999999999999943         -1.5857845414010790E-037
 -0.30000000000000071         -2.9902665586973061E-037
 -0.24000000000000199         -4.6627467522828280E-037
 -0.17999999999999972         -6.5034310504199487E-037
 -0.12000000000000099         -8.3709773055610283E-037
  -6.0000000000002274E-002    -1.0162351181963269E-036
   0.0000000000000000         -1.1765932760048309E-036
   5.9999999999998721E-002    -1.3065165540561282E-036
  0.11999999999999744         -1.3961601788773853E-036
  0.17999999999999972         -1.4319719287167971E-036
  0.23999999999999844         -1.4017865678822824E-036
  0.30000000000000071         -1.2909931999959658E-036
  0.35999999999999943         -1.0875258262850139E-036
  0.41999999999999815         -7.8316504152467425E-037
  0.48000000000000043         -3.7291714242194568E-037
  0.53999999999999915          1.4502346716689432E-037
  0.59999999999999787          7.9264268558010615E-037
  0.66000000000000014          1.5434423489286900E-036
  0.71999999999999886          2.3740294390839183E-036
  0.77999999999999758          3.2666051178589412E-036
  0.83999999999999986          4.1935694849521186E-036
  0.89999999999999858          5.1175923700922904E-036
  0.96000000000000085          5.9978285106449361E-036
   1.0199999999999996          6.7943099033490819E-036
   1.0799999999999983          7.4489461453530384E-036
   1.1400000000000006          7.9027717866269738E-036
   1.1999999999999993          8.0886070599793114E-036
   1.2599999999999980          7.9450678344123070E-036
   1.3200000000000003          7.3695597900063032E-036
   1.3799999999999990          6.2794537832620914E-036
   1.4399999999999977          4.6363681649733359E-036
   1.5000000000000000          2.4190906040985811E-036
   1.5599999999999987         -3.9903149528170674E-037
   1.6199999999999974         -3.8199720642595181E-036
   1.6799999999999997         -7.8276682838713441E-036
   1.7399999999999984         -1.2379794382925606E-035
   1.8000000000000007         -1.7393646691024849E-035
   1.8599999999999994         -2.2762316442558555E-035
   1.9199999999999982         -2.8330421668184272E-035
   1.9800000000000004         -3.3907438062107457E-035
   2.0399999999999991         -3.9232841516012485E-035
   2.0999999999999979         -4.4052298183716181E-035
   2.1600000000000001         -4.8049516742187361E-035
   2.2199999999999989         -5.0903716933002451E-035
   2.2799999999999976         -5.2280929154969968E-035
   2.3399999999999999         -5.1721969765633775E-035
   2.3999999999999986         -4.8864070770999760E-035
   2.4599999999999973         -4.3281148764899624E-035
   2.5199999999999996         -3.4568315085772459E-035
   2.5799999999999983         -2.2391553052831102E-035
   2.6400000000000006         -6.5070605537680052E-036
   2.6999999999999993          1.3231754523788234E-035
   2.7599999999999980          3.6841959412343602E-035
   2.8200000000000003          6.4192340871442523E-035
   2.8799999999999990          9.4981422058876950E-035
   2.9399999999999977          1.2870681724351543E-034
   3.0000000000000000          1.6459404100866032E-034
   3.0599999999999987          2.0169213354314382E-034
   3.1199999999999974          2.3877983873899310E-034
   3.1799999999999997          2.7443816155334581E-034
   3.2399999999999984          3.0689634160332507E-034
   3.3000000000000007          3.3432920227586657E-034
   3.3599999999999994          3.5455634743164503E-034
   3.4199999999999982          3.6531540532208924E-034
   3.4800000000000004          3.6422475380516365E-034
   3.5399999999999991          3.4889121699929034E-034
   3.5999999999999979          3.1698734950372490E-034
   3.6600000000000001          2.6635493493731933E-034
   3.7199999999999989          1.9512591743890817E-034
   3.7799999999999976          1.0184229440659764E-034
   3.8399999999999999         -1.4407877958236846E-035
   3.8999999999999986         -1.5384246771062057E-034
   3.9599999999999973         -3.1583729565751310E-034
   4.0199999999999996         -4.9879009529394571E-034
   4.0799999999999983         -6.9998590472794583E-034
   4.1400000000000006         -9.1548675287501047E-034
   4.1999999999999993         -1.1400466511161561E-033
   4.2599999999999980         -1.3670318540218378E-033
   4.3200000000000003         -1.5884078554371302E-033
   4.3799999999999990         -1.7947751906822244E-033
   4.4399999999999977         -1.9754564647398997E-033
   4.5000000000000000         -2.1186286937278142E-033
   4.5599999999999987         -2.2115623722149800E-033
   4.6199999999999974         -2.2409112323150559E-033
   4.6799999999999997         -2.1930872569160899E-033
   4.7399999999999984         -2.0547142349652076E-033
   4.7999999999999972         -1.8131564861483239E-033
   4.8599999999999994         -1.4571455760547034E-033
   4.9199999999999982         -9.7744721906220048E-034
   4.9800000000000004         -3.6759123129389710E-034
   5.0399999999999991          3.7536979117183049E-034
   5.0999999999999979          1.2500802379667549E-033
   5.1600000000000001          2.2501016074063517E-033
   5.2199999999999989          3.3631949145536838E-033
   5.2799999999999976          4.5706651379916132E-033
   5.3399999999999999          5.8468203345518532E-033
   5.3999999999999986          7.1585888468208606E-033
   5.4599999999999973          8.4653098123751881E-033
   5.5199999999999996          9.7187951907464366E-033
   5.5799999999999983          1.0863644624664907E-032
   5.6400000000000006          1.1837888686083013E-032
   5.6999999999999993          1.2574000938077328E-032
   5.7599999999999980          1.3000271193708136E-032
   5.8200000000000003          1.3042599362697533E-032
   5.8799999999999990          1.2626691945642857E-032
   5.9399999999999977          1.1680681690239025E-032
   6.0000000000000000          1.0138137748297268E-032
   6.0599999999999987          7.9414316654868605E-033
   6.1199999999999974          5.0454060049890470E-033
   6.1799999999999997          1.4212670976244405E-033
   6.2399999999999984         -2.9393862495400161E-033
   6.2999999999999972         -8.0205231450916791E-033
   6.3599999999999994         -1.3777771471519718E-032
   6.4199999999999982         -2.0134796361398063E-032
   6.4800000000000004         -2.6980140165745422E-032
   6.5399999999999991         -3.4164740859255155E-032
   6.5999999999999979         -4.1500288694407620E-032
   6.6600000000000001         -4.8758691027169606E-032
   6.7199999999999989         -5.5672803823981229E-032
   6.7799999999999976         -6.1938654475696770E-032
   6.8399999999999999         -6.7219360493421617E-032
   6.8999999999999986         -7.1150854761051727E-032
   6.9599999999999973         -7.3349609054972919E-032
   7.0199999999999996         -7.3422355108730520E-032
   7.0799999999999983         -7.0977929292136299E-032
   7.1400000000000006         -6.5641080715710792E-032
   7.1999999999999993         -5.7068200422935900E-032
   7.2599999999999980         -4.4964760948639861E-032
   7.3200000000000003         -2.9104099011732936E-032
   7.3799999999999990         -9.3472320021041260E-033
   7.4399999999999977          1.4336862876611362E-032
   7.5000000000000000          4.1851090727893363E-032
   7.5599999999999987          7.2950919589716089E-032
   7.6199999999999974          1.0722665501555789E-031
   7.6799999999999997          1.4408824545484243E-031
   7.7399999999999984          1.8275354625963766E-031
   7.7999999999999972          2.2224103017090126E-031
   7.8599999999999994          2.6136785691334588E-031
   7.9199999999999982          2.9875458137596156E-031
   7.9800000000000004          3.3283703961257765E-031
   8.0399999999999991          3.6188662588704010E-031
   8.1000000000000014          3.8403949231174538E-031
   8.1599999999999966          3.9733529218267574E-031
   8.2199999999999989          3.9976580472301650E-031
   8.2800000000000011          3.8933338269828124E-031
   8.3399999999999963          3.6411920084462857E-031
   8.3999999999999986          3.2236026229706273E-031
   8.4600000000000009          2.6253467981379795E-031
   8.5199999999999960          1.8345326698144035E-031
   8.5799999999999983          8.4355718381867330E-032
   8.6400000000000006         -3.4991112232244181E-032