  -24.000000000000000          0.0000000000000000     
  -23.940000000000001          0.0000000000000000     
  -23.879999999999999          0.0000000000000000     
  -23.820000000000000          0.0000000000000000     
  -23.760000000000002          0.0000000000000000     
  -23.699999999999999          0.0000000000000000     
  -23.640000000000001          0.0000000000000000     
  -23.579999999999998          0.0000000000000000     
  -23.520000000000000          0.0000000000000000     
  -23.460000000000001          0.0000000000000000     
  -23.399999999999999          0.0000000000000000     
  -23.340000000000000          0.0000000000000000     
  -23.280000000000001          0.0000000000000000     
  -23.219999999999999          0.0000000000000000     
  -23.160000000000000          0.0000000000000000     
  -23.100000000000001          0.0000000000000000     
  -23.039999999999999          0.0000000000000000     
  -22.980000000000000          0.0000000000000000     
  -22.920000000000002          0.0000000000000000     
  -22.859999999999999          0.0000000000000000     
  -22.800000000000001          0.0000000000000000     
  -22.739999999999998          0.0000000000000000     
  -22.680000000000000          0.0000000000000000     
  -22.620000000000001          0.0000000000000000     
  -22.559999999999999          0.0000000000000000     
  -22.500000000000000          0.0000000000000000     
  -22.440000000000001          0.0000000000000000     
  -22.379999999999999          0.0000000000000000     
  -22.320000000000000          0.0000000000000000     
  -22.260000000000002          0.0000000000000000     
  -22.199999999999999          0.0000000000000000     
  -22.140000000000001          0.0000000000000000     
  -22.079999999999998          0.0000000000000000     
  -22.020000000000000          0.0000000000000000     
  -21.960000000000001          0.0000000000000000     
  -21.899999999999999          0.0000000000000000     
  -21.840000000000000          0.0000000000000000     
  -21.780000000000001          0.0000000000000000     
  -21.719999999999999          0.0000000000000000     
  -21.660000000000000          0.0000000000000000     
  -21.600000000000001          0.0000000000000000     
  -21.539999999999999          0.0000000000000000     
  -21.480000000000000          0.0000000000000000     
  -21.420000000000002          0.0000000000000000     
  -21.359999999999999          0.0000000000000000     
  -21.300000000000001          0.0000000000000000     
  -21.240000000000002          0.0000000000000000     
  -21.180000000000000          0.0000000000000000     
  -21.120000000000001          0.0000000000000000     
  -21.059999999999999          0.0000000000000000     
  -21.000000000000000          0.0000000000000000     
  -20.940000000000001          0.0000000000000000     
  -20.879999999999999          0.0000000000000000     
  -20.820000000000000          0.0000000000000000     
  -20.760000000000002          0.0000000000000000     
  -20.699999999999999          0.0000000000000000     
  -20.640000000000001          0.0000000000000000     
  -20.579999999999998          0.0000000000000000     
  -20.520000000000000          0.0000000000000000     
  -20.460000000000001          0.0000000000000000     
  -20.399999999999999          0.0000000000000000     
  -20.340000000000000          0.0000000000000000     
  -20.280000000000001          0.0000000000000000     
  -20.219999999999999          0.0000000000000000     
  -20.160000000000000          0.0000000000000000     
  -20.100000000000001          0.0000000000000000     
  -20.039999999999999          0.0000000000000000     
  -19.980000000000000          0.0000000000000000     
  -19.920000000000002          0.0000000000000000     
  -19.859999999999999          0.0000000000000000     
  -19.800000000000001          0.0000000000000000     
  -19.740000000000002          0.0000000000000000     
  -19.680000000000000          0.0000000000000000     
  -19.620000000000001          0.0000000000000000     
  -19.560000000000002          0.0000000000000000     
  -19.500000000000000          0.0000000000000000     
  -19.440000000000001          0.0000000000000000     
  -19.379999999999999          0.0000000000000000     
  -19.320000000000000          0.0000000000000000     
  -19.259999999999998          0.0000000000000000     
  -19.199999999999999          0.0000000000000000     
  -19.140000000000001          0.0000000000000000     
  -19.079999999999998          0.0000000000000000     
  -19.020000000000000          0.0000000000000000     
  -18.960000000000001          0.0000000000000000     
  -18.899999999999999          0.0000000000000000     
  -18.840000000000000          0.0000000000000000     
  -18.780000000000001          0.0000000000000000     
  -18.719999999999999          0.0000000000000000     
  -18.660000000000000          0.0000000000000000     
  -18.600000000000001          0.0000000000000000     
  -18.539999999999999          0.0000000000000000     
  -18.480000000000000          0.0000000000000000     
  -18.420000000000002          0.0000000000000000     
  -18.359999999999999          0.0000000000000000     
  -18.300000000000001          0.0000000000000000     
  -18.240000000000002          0.0000000000000000     
  -18.180000000000000          0.0000000000000000     
  -18.120000000000001          0.0000000000000000     
  -18.060000000000002          0.0000000000000000     
  -18.000000000000000          0.0000000000000000     
  -17.940000000000001          0.0000000000000000     
  -17.879999999999999          0.0000000000000000     
  -17.820000000000000          0.0000000000000000     
  -17.759999999999998          0.0000000000000000     
  -17.699999999999999          0.0000000000000000     
  -17.640000000000001          0.0000000000000000     
  -17.579999999999998          0.0000000000000000     
  -17.520000000000000          0.0000000000000000     
  -17.460000000000001          0.0000000000000000     
  -17.399999999999999          0.0000000000000000     
  -17.340000000000000          0.0000000000000000     
  -17.280000000000001          0.0000000000000000     
  -17.219999999999999          0.0000000000000000     
  -17.160000000000000          0.0000000000000000     
  -17.100000000000001          0.0000000000000000     
  -17.039999999999999          0.0000000000000000     
  -16.980000000000000          0.0000000000000000     
  -16.920000000000002          0.0000000000000000     
  -16.859999999999999          0.0000000000000000     
  -16.800000000000001          0.0000000000000000     
  -16.740000000000002          0.0000000000000000     
  -16.680000000000000          0.0000000000000000     
  -16.620000000000001          0.0000000000000000     
  -16.560000000000002          0.0000000000000000     
  -16.500000000000000          0.0000000000000000     
  -16.440000000000001          0.0000000000000000     
  -16.379999999999999          0.0000000000000000     
  -16.320000000000000          0.0000000000000000     
  -16.260000000000002          0.0000000000000000     
  -16.199999999999999          0.0000000000000000     
  -16.140000000000001          0.0000000000000000     
  -16.079999999999998          0.0000000000000000     
  -16.020000000000000          0.0000000000000000     
  -15.960000000000001          0.0000000000000000     
  -15.900000000000000          0.0000000000000000     
  -15.840000000000000          0.0000000000000000     
  -15.780000000000001          0.0000000000000000     
  -15.720000000000001          0.0000000000000000     
  -15.660000000000000          0.0000000000000000     
  -15.600000000000000          0.0000000000000000     
  -15.540000000000001          0.0000000000000000     
  -15.480000000000000          0.0000000000000000     
  -15.420000000000000          0.0000000000000000     
  -15.359999999999999          0.0000000000000000     
  -15.300000000000001          0.0000000000000000     
  -15.240000000000000          0.0000000000000000     
  -15.180000000000000          0.0000000000000000     
  -15.120000000000001          0.0000000000000000     
  -15.060000000000000          0.0000000000000000     
  -15.000000000000000          0.0000000000000000     
  -14.940000000000000          0.0000000000000000     
  -14.880000000000001          0.0000000000000000     
  -14.820000000000000          0.0000000000000000     
  -14.760000000000000          0.0000000000000000     
  -14.700000000000001          0.0000000000000000     
  -14.640000000000001          0.0000000000000000     
  -14.580000000000000          0.0000000000000000     
  -14.520000000000000          0.0000000000000000     
  -14.460000000000001          0.0000000000000000     
  -14.400000000000000          0.0000000000000000     
  -14.340000000000000          0.0000000000000000     
  -14.280000000000001          0.0000000000000000     
  -14.220000000000001          0.0000000000000000     
  -14.160000000000000          0.0000000000000000     
  -14.100000000000000          0.0000000000000000     
  -14.040000000000001          0.0000000000000000     
  -13.980000000000000          0.0000000000000000     
  -13.920000000000000          0.0000000000000000     
  -13.860000000000001          0.0000000000000000     
  -13.800000000000001          0.0000000000000000     
  -13.740000000000000          0.0000000000000000     
  -13.680000000000000          0.0000000000000000     
  -13.620000000000001          0.0000000000000000     
  -13.560000000000000          0.0000000000000000     
  -13.500000000000000          0.0000000000000000     
  -13.440000000000001          0.0000000000000000     
  -13.380000000000001          0.0000000000000000     
  -13.320000000000000          0.0000000000000000     
  -13.260000000000000          0.0000000000000000     
  -13.200000000000001          0.0000000000000000     
  -13.140000000000001          0.0000000000000000     
  -13.080000000000000          0.0000000000000000     
  -13.020000000000000          0.0000000000000000     
  -12.960000000000001          0.0000000000000000     
  -12.900000000000000          0.0000000000000000     
  -12.840000000000000          0.0000000000000000     
  -12.780000000000001          0.0000000000000000     
  -12.720000000000001          0.0000000000000000     
  -12.660000000000000          0.0000000000000000     
  -12.600000000000000          0.0000000000000000     
  -12.540000000000001          0.0000000000000000     
  -12.480000000000000          0.0000000000000000     
  -12.420000000000000          0.0000000000000000     
  -12.360000000000001          0.0000000000000000     
  -12.300000000000001          0.0000000000000000     
  -12.240000000000000          0.0000000000000000     
  -12.180000000000000          0.0000000000000000     
  -12.120000000000001          0.0000000000000000     
  -12.060000000000000          0.0000000000000000     
  -12.000000000000000          0.0000000000000000     
  -11.940000000000001          0.0000000000000000     
  -11.880000000000001          0.0000000000000000     
  -11.820000000000000          0.0000000000000000     
  -11.760000000000000          0.0000000000000000     
  -11.700000000000001          0.0000000000000000     
  -11.640000000000001          0.0000000000000000     
  -11.580000000000000          0.0000000000000000     
  -11.520000000000000          0.0000000000000000     
  -11.460000000000001          0.0000000000000000     
  -11.400000000000000          0.0000000000000000     
  -11.340000000000000          0.0000000000000000     
  -11.280000000000001          0.0000000000000000     
  -11.220000000000001          0.0000000000000000     
  -11.160000000000000          0.0000000000000000     
  -11.100000000000000          0.0000000000000000     
  -11.040000000000001          0.0000000000000000     
  -10.980000000000000          0.0000000000000000     
  -10.920000000000000          0.0000000000000000     
  -10.860000000000001          0.0000000000000000     
  -10.800000000000001          0.0000000000000000     
  -10.740000000000000          0.0000000000000000     
  -10.680000000000000          0.0000000000000000     
  -10.620000000000001          0.0000000000000000     
  -10.560000000000000          0.0000000000000000     
  -10.500000000000000          0.0000000000000000     
  -10.440000000000001          0.0000000000000000     
  -10.380000000000001          0.0000000000000000     
  -10.320000000000000          0.0000000000000000     
  -10.260000000000000          0.0000000000000000     
  -10.200000000000001          0.0000000000000000     
  -10.140000000000001          0.0000000000000000     
  -10.080000000000000          0.0000000000000000     
  -10.020000000000001          0.0000000000000000     
  -9.9600000000000009          0.0000000000000000     
  -9.9000000000000004          0.0000000000000000     
  -9.8399999999999999          0.0000000000000000     
  -9.7800000000000011          0.0000000000000000     
  -9.7200000000000006          0.0000000000000000     
  -9.6600000000000001          0.0000000000000000     
  -9.6000000000000014          0.0000000000000000     
  -9.5400000000000009          0.0000000000000000     
  -9.4800000000000004          0.0000000000000000     
  -9.4199999999999999          0.0000000000000000     
  -9.3600000000000012          0.0000000000000000     
  -9.3000000000000007          0.0000000000000000     
  -9.2400000000000002          0.0000000000000000     
  -9.1799999999999997          0.0000000000000000     
  -9.1200000000000010          0.0000000000000000     
  -9.0600000000000005          0.0000000000000000     
  -9.0000000000000000          0.0000000000000000     
  -8.9400000000000013          0.0000000000000000     
  -8.8800000000000008          0.0000000000000000     
  -8.8200000000000003          0.0000000000000000     
  -8.7599999999999998          0.0000000000000000     
  -8.7000000000000011          0.0000000000000000     
  -8.6400000000000006          0.0000000000000000     
  -8.5800000000000001          0.0000000000000000     
  -8.5200000000000014          0.0000000000000000     
  -8.4600000000000009          0.0000000000000000     
  -8.4000000000000004          0.0000000000000000     
  -8.3399999999999999          0.0000000000000000     
  -8.2800000000000011          0.0000000000000000     
  -8.2200000000000006          0.0000000000000000     
  -8.1600000000000001          0.0000000000000000     
  -8.1000000000000014          0.0000000000000000     
  -8.0400000000000009          0.0000000000000000     
  -7.9800000000000004          0.0000000000000000     
  -7.9200000000000017          0.0000000000000000     
  -7.8599999999999994          1.9371029331470659E-041
  -7.8000000000000007          4.7123360630698414E-041
  -7.7400000000000020          8.2966427321661435E-041
  -7.6799999999999997          1.2271486474911931E-040
  -7.6200000000000010          1.6246330217657719E-040
  -7.5600000000000023          2.0221173960403507E-040
  -7.5000000000000000          2.4196017703149295E-040
  -7.4400000000000013          2.8170861445895082E-040
  -7.3799999999999990          3.1597092906559995E-040
  -7.3200000000000003          3.3615366931948153E-040
  -7.2600000000000016          3.2405323617802889E-040
  -7.1999999999999993          2.8007005693564267E-040
  -7.1400000000000006          2.2831987884197846E-040
  -7.0800000000000018          1.5987196861581316E-040
  -7.0199999999999996          7.2509891809659030E-041
  -6.9600000000000009         -8.3251953601125691E-041
  -6.9000000000000021         -3.3597973136071045E-040
  -6.8399999999999999         -6.8582046378714009E-040
  -6.7800000000000011         -1.0947990696676623E-039
  -6.7199999999999989         -1.5143786413025413E-039
  -6.6600000000000001         -1.9536701203887320E-039
  -6.6000000000000014         -2.4089172558304381E-039
  -6.5399999999999991         -2.8747135585346980E-039
  -6.4800000000000004         -3.3442142277989443E-039
  -6.4200000000000017         -3.7749559603983844E-039
  -6.3599999999999994         -4.0223645131929763E-039
  -6.3000000000000007         -4.0224348548009213E-039
  -6.2400000000000020         -3.7654557412691993E-039
  -6.1799999999999997         -3.3232174220615892E-039
  -6.1200000000000010         -2.6775834191843340E-039
  -6.0600000000000023         -1.8136780757533744E-039
  -6.0000000000000000         -7.2110773376991156E-040
  -5.9400000000000013          6.0470700567790425E-040
  -5.8799999999999990          2.1611062034890791E-039
  -5.8200000000000003          3.9367003277761703E-039
  -5.7600000000000016          5.9032189436021435E-039
  -5.6999999999999993          8.0334518554125460E-039
  -5.6400000000000006          1.0287664993349225E-038
  -5.5800000000000018          1.2599072083509414E-038
  -5.5199999999999996          1.4926147995086299E-038
  -5.4600000000000009          1.6939177105348185E-038
  -5.4000000000000021          1.8563631195629669E-038
  -5.3399999999999999          1.9460649817673999E-038
  -5.2800000000000011          1.9005197265836148E-038
  -5.2200000000000024          1.7641105205458521E-038
  -5.1600000000000001          1.4762268086872650E-038
  -5.1000000000000014          1.0536784426951676E-038
  -5.0399999999999991          4.8555189244897354E-039
  -4.9800000000000004         -2.4187657644481978E-039
  -4.9200000000000017         -1.1324653538989247E-038
  -4.8599999999999994         -2.1473671370076015E-038
  -4.8000000000000007         -3.2823813525569199E-038
  -4.7400000000000020         -4.5355794009944415E-038
  -4.6799999999999997         -5.9090507724580343E-038
  -4.6200000000000010         -7.3929190387014269E-038
  -4.5600000000000023         -8.9521040272747115E-038
  -4.5000000000000000         -1.0474996568534452E-037
  -4.4400000000000013         -1.1861619645682587E-037
  -4.3799999999999990         -1.2985302877238158E-037
  -4.3200000000000003         -1.3719258287203414E-037
  -4.2600000000000016         -1.4046674078550125E-037
  -4.1999999999999993         -1.3881135925885149E-037
  -4.1400000000000006         -1.3208984271427846E-037
  -4.0800000000000018         -1.1977180971808568E-037
  -4.0199999999999996         -1.0248781623407970E-037
  -3.9600000000000009         -7.9839778580759386E-038
  -3.9000000000000021         -5.0930304270820276E-038
  -3.8399999999999999         -1.5275867357764711E-038
  -3.7800000000000011          2.7401410871739552E-038
  -3.7200000000000024          7.7328744808146251E-038
  -3.6600000000000001          1.3618494623405467E-037
  -3.6000000000000014          2.0321729203130936E-037
  -3.5399999999999991          2.7698686275107980E-037
  -3.4800000000000004          3.5584512223349569E-037
  -3.4200000000000017          4.3654109689192985E-037
  -3.3599999999999994          5.1531044885545365E-037
  -3.3000000000000007          5.8737481774094992E-037
  -3.2400000000000020          6.5051744211612319E-037
  -3.1799999999999997          7.0144801957889078E-037
  -3.1200000000000010          7.3656105420470600E-037
  -3.0600000000000023          7.5134475692795788E-037
  -3.0000000000000000          7.4213511707089051E-037
  -2.9400000000000013          7.0439370199282559E-037
  -2.8800000000000026          6.3313084899666935E-037
  -2.8200000000000003          5.2395111096657310E-037
  -2.7600000000000016          3.7394131873950756E-037
  -2.6999999999999993          1.8047393723792294E-037
  -2.6400000000000006         -5.7481594360975871E-038
  -2.5800000000000018         -3.4256350418248132E-037
  -2.5199999999999996         -6.7363472611768271E-037
  -2.4600000000000009         -1.0490470028367182E-036
  -2.4000000000000021         -1.4624952963335827E-036
  -2.3399999999999999         -1.9064802132594531E-036
  -2.2800000000000011         -2.3689441657031741E-036
  -2.2200000000000024         -2.8305097932355145E-036
  -2.1600000000000001         -3.2818172466917705E-036
  -2.1000000000000014         -3.6922938345137367E-036
  -2.0399999999999991         -4.0480325965233512E-036
  -1.9800000000000004         -4.3229407771673049E-036
  -1.9200000000000017         -4.4981741526784026E-036
  -1.8599999999999994         -4.5451749583461197E-036
  -1.8000000000000007         -4.4328574747709155E-036
  -1.7400000000000020         -4.1288754877763577E-036
  -1.6799999999999997         -3.6043054777771285E-036
  -1.6200000000000010         -2.8324208895697802E-036
  -1.5600000000000023         -1.8101935799988312E-036
  -1.5000000000000000         -5.0502052114016675E-037
  -1.4400000000000013          1.0887471370086147E-036
  -1.3800000000000026          2.9789215858643271E-036
  -1.3200000000000003          5.1501823366555516E-036
  -1.2600000000000016          7.5920897066690200E-036
  -1.1999999999999993          1.0270841773063635E-035
  -1.1400000000000006          1.3157355535250410E-035
  -1.0800000000000018          1.6185414551277073E-035
  -1.0199999999999996          1.9274493812639958E-035
 -0.96000000000000085          2.2326990288758956E-035
 -0.90000000000000213          2.5225992598298952E-035
 -0.83999999999999986          2.7835141107957393E-035
 -0.78000000000000114          3.0004528788843722E-035
 -0.72000000000000242          3.1566918233060978E-035
 -0.66000000000000014          3.2337308989657198E-035
 -0.60000000000000142          3.2123972803071365E-035
 -0.53999999999999915          3.0720131156829901E-035
 -0.48000000000000043          2.7968495052532784E-035
 -0.42000000000000171          2.3670904396338440E-035
 -0.35999999999999943          1.7665127912551467E-035
 -0.30000000000000071          9.8181830816548282E-036
 -0.24000000000000199          2.3747455273348629E-038
 -0.17999999999999972         -1.1766859295837870E-035
 -0.12000000000000099         -2.5557429048920454E-035
  -6.0000000000002274E-002    -4.1285221890213441E-035
   0.0000000000000000         -5.8809948354426854E-035
   5.9999999999998721E-002    -7.7902786632625037E-035
  0.11999999999999744         -9.8237788151181385E-035
  0.17999999999999972         -1.1938198688749356E-034
  0.23999999999999844         -1.4078789651604817E-034
  0.30000000000000071         -1.6178833086032781E-034
  0.35999999999999943         -1.8160258688028863E-034
  0.41999999999999815         -1.9934136775808166E-034
  0.48000000000000043         -2.1399893908913930E-034
  0.53999999999999915         -2.2449939429917993E-034
  0.59999999999999787         -2.2965440367955610E-034
  0.66000000000000014         -2.2819850089110421E-034
  0.71999999999999886         -2.1889809299967802E-034
  0.77999999999999758         -2.0052356224073347E-034
  0.83999999999999986         -1.7187793198589886E-034
  0.89999999999999858         -1.3187756416442686E-034
  0.96000000000000085         -7.9598299590604256E-035
   1.0199999999999996         -1.4336033081418498E-035
   1.0799999999999983          6.4326899909742098E-035
   1.1400000000000006          1.5645905311016318E-034
   1.1999999999999993          2.6170148445738584E-034
   1.2599999999999980          3.7920681064595182E-034
   1.3200000000000003          5.0756250598978953E-034
   1.3799999999999990          6.4474114751132342E-034
   1.4399999999999977          7.8804468788292227E-034
   1.5000000000000000          9.3406438155145708E-034
   1.5599999999999987          1.0786563398470723E-033
   1.6199999999999974          1.2169341065999026E-033
   1.6799999999999997          1.3432831840448492E-033
   1.7399999999999984          1.4513931947835524E-033
   1.8000000000000007          1.5343509722055934E-033
   1.8599999999999994          1.5847353516759287E-033
   1.9199999999999982          1.5947469469527943E-033
   1.9800000000000004          1.5564114698620296E-033
   2.0399999999999991          1.4617572968074166E-033
   2.0999999999999979          1.3030940841385225E-033
   2.1600000000000001          1.0732998344090613E-033
   2.2199999999999989          7.6614478446076012E-034
   2.2799999999999976          3.7666272786533968E-034
   2.3399999999999999         -9.8484897756120721E-035
   2.3999999999999986         -6.6060311707247852E-034
   2.4599999999999973         -1.3085369742569740E-033
   2.5199999999999996         -2.0382638352921739E-033
   2.5799999999999983         -2.8424777626263400E-033
   2.6400000000000006         -3.7102380388292260E-033
   2.6999999999999993         -4.6266415282118256E-033
   2.7599999999999980         -5.5725612321866262E-033
   2.8200000000000003         -6.5244664850025433E-033
   2.8799999999999990         -7.4543464410007821E-033
   2.9399999999999977         -8.3297573872139748E-033
   3.0000000000000000         -9.1140147348626582E-033
   3.0599999999999987         -9.7665448514284557E-033
   3.1199999999999974         -1.0243420681801853E-032
   3.1799999999999997         -1.0498095222661278E-032
   3.2399999999999984         -1.0482339181861203E-032
   3.3000000000000007         -1.0147397773397342E-032
   3.3599999999999994         -9.4453683705428104E-033
   3.4199999999999982         -8.3307922504604054E-033
   3.4800000000000004         -6.7624549451239868E-033
   3.5399999999999991         -4.7053762148339416E-033
   3.5999999999999979         -2.1329471521251410E-033
   3.6600000000000001          9.7079149555822924E-034
   3.7199999999999989          4.6087821165119575E-033
   3.7799999999999976          8.7685986277813092E-033
   3.8399999999999999          1.3420111812264617E-032
   3.8999999999999986          1.8513277882277964E-032
   3.9599999999999973          2.3976148080967388E-032
   4.0199999999999996          2.9713167839960988E-032
   4.0799999999999983          3.5603886103982447E-032
   4.1400000000000006          4.1502173889291222E-032
   4.1999999999999993          4.7236069050189824E-032
   4.2599999999999980          5.2608346390334708E-032
   4.3200000000000003          5.7397923533776850E-032
   4.3799999999999990          6.1362212598500675E-032
   4.4399999999999977          6.4240495695435886E-032
   4.5000000000000000          6.5758405743056459E-032
   4.5599999999999987          6.5633559154343565E-032
   4.6199999999999974          6.3582388442810324E-032
   4.6799999999999997          5.9328147400265120E-032
   4.7399999999999984          5.2610078465590861E-032
   4.7999999999999972          4.3193705278815529E-032
   4.8599999999999994          3.0881999146278419E-032
   4.9199999999999982          1.5527450678151369E-032
   4.9800000000000004         -2.9553081702700275E-033
   5.0399999999999991         -2.4576565860178292E-032
   5.0999999999999979         -4.9258526803476248E-032
   5.1600000000000001         -7.6822726035345379E-032
   5.2199999999999989         -1.0697814643101616E-031
   5.2799999999999976         -1.3931063278732732E-031
   5.3399999999999999         -1.7327402014981159E-031
   5.3999999999999986         -2.0818354974197789E-031
   5.4599999999999973         -2.4321207534334453E-031
   5.5199999999999996         -2.7738978033207866E-031
   5.5799999999999983         -3.0960777774733316E-031
   5.6400000000000006         -3.3862622546263796E-031
   5.6999999999999993         -3.6308752482658899E-031
   5.7599999999999980         -3.8153500802626874E-031
   5.8200000000000003         -3.9243727967435436E-031
   5.8799999999999990         -3.9421885695289523E-031
   5.9399999999999977         -3.8529691046986553E-031
   6.0000000000000000         -3.6412415654467955E-031
   6.0599999999999987         -3.2923787534595385E-031
   6.1199999999999974         -2.7931424993930484E-031
   6.1799999999999997         -2.1322804087918337E-031
   6.2399999999999984         -1.3011599521234305E-031
   6.2999999999999972         -2.9443508904328115E-032
   6.3599999999999994          8.8927319431350370E-032
   6.4199999999999982          2.2466925040870868E-031
   6.4800000000000004          3.7692363534429675E-031
   6.5399999999999991          5.4423811773273871E-031
   6.5999999999999979          7.2451045227170724E-031
   6.6600000000000001          9.1494128293168377E-031
   6.7199999999999989          1.1119986397804037E-030
   6.7799999999999976          1.3113963447235081E-030
   6.8399999999999999          1.5080899378821273E-030
   6.8999999999999986          1.6962925299060694E-030
   6.9599999999999973          1.8695131349649643E-030
   7.0199999999999996          2.0206202471042785E-030
   7.0799999999999983          2.1419329534691542E-030
   7.1400000000000006          2.2253408663507887E-030
   7.1999999999999993          2.2624546283575054E-030
   7.2599999999999980          2.2447877977964556E-030
   7.3200000000000003          2.1639694813933511E-030
   7.3799999999999990          2.0119869509228073E-030
   7.4399999999999977          1.7814571620917487E-030
   7.5000000000000000          1.4659225382634849E-030
   7.5599999999999987          1.0601696945061252E-030
   7.6199999999999974          5.6056240884894066E-031
   7.6799999999999997         -3.4613899764409971E-032
   7.7399999999999984         -7.2480715886468796E-031
   7.7999999999999972         -1.5068593914872424E-030
   7.8599999999999994         -2.3746841877223598E-030
   7.9199999999999982         -3.3189731585601948E-030
   7.9800000000000004         -4.3269415181296898E-030
   8.0399999999999991         -5.3821260837907482E-030
   8.1000000000000014         -6.4642503472068929E-030
   8.1599999999999966         -7.5491661104564824E-030
   8.2199999999999989         -8.6088938713873571E-030
   8.2800000000000011         -9.6117621060503824E-030
   8.3399999999999963         -1.0522669421287043E-029
   8.3999999999999986         -1.1303474726396738E-029
   8.4600000000000009         -1.1913524388332200E-029
   8.5199999999999960         -1.2310326897499763E-029
   8.5799999999999983         -1.2450374451415778E-029
   8.6400000000000006         -1.2290116362921958E-029