  -24.000000000000000          0.0000000000000000     
  -23.940000000000001          0.0000000000000000     
  -23.879999999999999          0.0000000000000000     
  -23.820000000000000          0.0000000000000000     
  -23.760000000000002          0.0000000000000000     
  -23.699999999999999          0.0000000000000000     
  -23.640000000000001          0.0000000000000000     
  -23.579999999999998          0.0000000000000000     
  -23.520000000000000          5.1315115366400666E-036
  -23.460000000000001          8.5334252039548053E-035
  -23.399999999999999          7.4834798190981087E-034
  -23.340000000000000          4.6052323648204577E-033
  -23.280000000000001          2.2304994644269898E-032
  -23.219999999999999          9.0457619239799553E-032
  -23.160000000000000          3.1922134323366752E-031
  -23.100000000000001          1.0061121337470593E-030
  -23.039999999999999          2.8854001573922340E-030
  -22.980000000000000          7.6351240162981260E-030
  -22.920000000000002          1.8842210326682651E-029
  -22.859999999999999          4.3734652180668611E-029
  -22.800000000000001          9.6127906217117663E-029
  -22.739999999999998          2.0119292399499873E-028
  -22.680000000000000          4.0281431181917347E-028
  -22.620000000000001          7.7443433923295352E-028
  -22.559999999999999          1.4343107398370027E-027
  -22.500000000000000          2.5659747840696531E-027
  -22.440000000000001          4.4442553115597783E-027
  -22.379999999999999          7.4664164004590557E-027
  -22.320000000000000          1.2186577040983103E-026
  -22.260000000000002          1.9349590223254545E-026
  -22.199999999999999          2.9917751426303369E-026
  -22.140000000000001          4.5080090059900199E-026
  -22.079999999999998          6.6229796414247492E-026
  -22.020000000000000          9.4890384255405528E-026
  -21.960000000000001          1.3256641006179841E-025
  -21.899999999999999          1.8048980535873539E-025
  -21.840000000000000          2.3923016821902334E-025
  -21.780000000000001          3.0813675301422089E-025
  -21.719999999999999          3.8458252328935706E-025
  -21.660000000000000          4.6299089661288779E-025
  -21.600000000000001          5.3363932447472550E-025
  -21.539999999999999          5.8126095977681477E-025
  -21.480000000000000          5.8349781378174549E-025
  -21.420000000000002          5.0930547735403587E-025
  -21.359999999999999          3.1746413561628777E-025
  -21.300000000000001         -4.4584684777739513E-026
  -21.240000000000002         -6.4127917088141579E-025
  -21.180000000000000         -1.5484963646225114E-024
  -21.120000000000001         -2.8516865420253857E-024
  -21.059999999999999         -4.6420930957948139E-024
  -21.000000000000000         -7.0105285207315214E-024
  -20.940000000000001         -1.0038182706325769E-023
  -20.879999999999999         -1.3783998896148478E-023
  -20.820000000000000         -1.8268257385392125E-023
  -20.760000000000002         -2.3452216799555177E-023
  -20.699999999999999         -2.9213956082627903E-023
  -20.640000000000001         -3.5320951566517476E-023
  -20.579999999999998         -4.1400405670528217E-023
  -20.520000000000000         -4.6908984921959575E-023
  -20.460000000000001         -5.1104243477429102E-023
  -20.399999999999999         -5.3020858341886950E-023
  -20.340000000000000         -5.1455486100916031E-023
  -20.280000000000001         -4.4964828358378207E-023
  -20.219999999999999         -3.1882191427582761E-023
  -20.160000000000000         -1.0358218522060156E-023
  -20.100000000000001          2.1568340688502840E-023
  -20.039999999999999          6.5863981542447657E-023
  -19.980000000000000          1.2435300617286849E-022
  -19.920000000000002          1.9852557601462536E-022
  -19.859999999999999          2.8929930204017931E-022
  -19.800000000000001          3.9673561825027634E-022
  -19.740000000000002          5.1971529718965676E-022
  -19.680000000000000          6.5558232899275588E-022
  -19.620000000000001          7.9977010280541225E-022
  -19.560000000000002          9.4543008506095049E-022
  -19.500000000000000          1.0830892841127199E-021
  -19.440000000000001          1.2003689545055582E-021
  -19.379999999999999          1.2818043275638059E-021
  -19.320000000000000          1.3088088190391398E-021
  -19.259999999999998          1.2598322448140753E-021
  -19.199999999999999          1.1107646726202945E-021
  -19.140000000000001          8.3563608335193220E-022
  -19.079999999999998          4.0765982561518864E-022
  -19.020000000000000         -1.9933737933872475E-022
  -18.960000000000001         -1.0090756252465812E-021
  -18.899999999999999         -2.0405550414302604E-021
  -18.840000000000000         -3.3053773720049338E-021
  -18.780000000000001         -4.8046932191219566E-021
  -18.719999999999999         -6.5258501957608112E-021
  -18.660000000000000         -8.4388483288144108E-021
  -18.600000000000001         -1.0492766957478241E-020
  -18.539999999999999         -1.2612347987947985E-020
  -18.480000000000000         -1.4694989815383214E-020
  -18.420000000000002         -1.6608436717167001E-020
  -18.359999999999999         -1.8189490061703689E-020
  -18.300000000000001         -1.9244093358404644E-020
  -18.240000000000002         -1.9549175954119508E-020
  -18.180000000000000         -1.8856613172673259E-020
  -18.120000000000001         -1.6899690369480180E-020
  -18.060000000000002         -1.3402361930713686E-020
  -18.000000000000000         -8.0915657654570506E-021
  -17.940000000000001         -7.1274463124150302E-022
  -17.879999999999999          8.9514121969243873E-021
  -17.820000000000000          2.1059163882576063E-020
  -17.759999999999998          3.5685179589107790E-020
  -17.699999999999999          5.2793846287562483E-020
  -17.640000000000001          7.2211276163358951E-020
  -17.579999999999998          9.3597071825506363E-020
  -17.520000000000000          1.1641723404472020E-019
  -17.460000000000001          1.3991990355262363E-019
  -17.399999999999999          1.6311581043027785E-019
  -17.340000000000000          1.8476555037397443E-019
  -17.280000000000001          2.0337609334383279E-019
  -17.219999999999999          2.1720871851887798E-019
  -17.160000000000000          2.2430104162795118E-019
  -17.100000000000001          2.2250516961323426E-019
  -17.039999999999999          2.0954417210083650E-019
  -16.980000000000000          1.8308846343753021E-019
  -16.920000000000002          1.4085303021260902E-019
  -16.859999999999999          8.0716096559950890E-020
  -16.800000000000001          8.5824030391412277E-022
  -16.740000000000002         -1.0007933102008168E-019
  -16.680000000000000         -2.2282064732925202E-019
  -16.620000000000001         -3.6726910987629554E-019
  -16.560000000000002         -5.3231589064527881E-019
  -16.500000000000000         -7.1564973978970787E-019
  -16.440000000000001         -9.1357721352797384E-019
  -16.379999999999999         -1.1208638036925238E-018
  -16.320000000000000         -1.3306072275443184E-018
  -16.260000000000002         -1.5341563309016362E-018
  -16.199999999999999         -1.7210872029404868E-018
  -16.140000000000001         -1.8792533260528001E-018
  -16.079999999999998         -1.9949193232320944E-018
  -16.020000000000000         -2.0529944676741057E-018
  -15.960000000000001         -2.0373733744929937E-018
  -15.900000000000000         -1.9313958683664019E-018
  -15.840000000000000         -1.7184283200195648E-018
  -15.780000000000001         -1.3825693176670658E-018
  -15.720000000000001         -9.0947537295505311E-019
  -15.660000000000000         -2.8729724194433347E-019
  -15.600000000000000          4.9228951577418293E-019
  -15.540000000000001          1.4329821428441984E-018
  -15.480000000000000          2.5327077096071054E-018
  -15.420000000000000          3.7824768474152051E-018
  -15.359999999999999          5.1652817126579685E-018
  -15.300000000000001          6.6550883387230952E-018
  -15.240000000000000          8.2159889148204288E-018
  -15.180000000000000          9.8015655545966390E-018
  -15.120000000000001          1.1354551710654306E-017
  -15.060000000000000          1.2806847400147095E-017
  -15.000000000000000          1.4079958444748951E-017
  -14.940000000000000          1.5085933600127682E-017
  -14.880000000000001          1.5728851933579358E-017
  -14.820000000000000          1.5906904459042747E-017
  -14.760000000000000          1.5515112926890544E-017
  -14.700000000000001          1.4448694603564091E-017
  -14.640000000000001          1.2607075100658106E-017
  -14.580000000000000          9.8985062836629341E-018
  -14.520000000000000          6.2452453070236837E-018
  -14.460000000000001          1.5891865408667852E-018
  -14.400000000000000         -4.1021632914401386E-018
  -14.340000000000000         -1.0829536366565405E-017
  -14.280000000000001         -1.8555761217223016E-017
  -14.220000000000001         -2.7199876542964631E-017
  -14.160000000000000         -3.6631745692862329E-017
  -14.100000000000000         -4.6667442127415793E-017
  -14.040000000000001         -5.7065746723441168E-017
  -13.980000000000000         -6.7526060992147049E-017
  -13.920000000000000         -7.7688053684433620E-017
  -13.860000000000001         -8.7133353317917707E-017
  -13.800000000000001         -9.5389600409854242E-017
  -13.740000000000000         -1.0193716809580554E-016
  -13.680000000000000         -1.0621865752148941E-016
  -13.620000000000001         -1.0765142840344178E-016
  -13.560000000000000         -1.0564321719435366E-016
  -13.500000000000000         -9.9610800733850032E-017
  -13.440000000000001         -8.9001626222477501E-017
  -13.380000000000001         -7.3318115132262288E-017
  -13.320000000000000         -5.2144311442161002E-017
  -13.260000000000000         -2.5174311146252962E-017
  -13.200000000000001          7.7581349591158802E-018
  -13.140000000000001          4.6649655563297116E-017
  -13.080000000000000          9.1297943196292774E-017
  -13.020000000000000          1.4127408132255674E-016
  -12.960000000000001          1.9589773678328146E-016
  -12.900000000000000          2.5421656342709709E-016
  -12.840000000000000          3.1499096438201015E-016
  -12.780000000000001          3.7668579565803728E-016
  -12.720000000000001          4.3747032036748215E-016
  -12.660000000000000          4.9522776108936324E-016
  -12.600000000000000          5.4757546856254934E-016
  -12.540000000000001          5.9189686485622713E-016
  -12.480000000000000          6.2538615979354287E-016
  -12.420000000000000          6.4510604734941096E-016
  -12.360000000000001          6.4805881069414399E-016
  -12.300000000000001          6.3127053989637987E-016
  -12.240000000000000          5.9188795868763701E-016
  -12.180000000000000          5.2728660756132087E-016
  -12.120000000000001          4.3518868823533208E-016
  -12.060000000000000          3.1378877306684245E-016
  -12.000000000000000          1.6188401838293375E-016
  -11.940000000000001         -2.0993604863505978E-017
  -11.880000000000001         -2.3444771682584219E-016
  -11.820000000000000         -4.7709440886850507E-016
  -11.760000000000000         -7.4644989025873657E-016
  -11.700000000000001         -1.0388350315199788E-015
  -11.640000000000001         -1.3493005959652255E-015
  -11.580000000000000         -1.6715800741014287E-015
  -11.520000000000000         -1.9980737650679484E-015
  -11.460000000000001         -2.3198713471355247E-015
  -11.400000000000000         -2.6268141480882692E-015
  -11.340000000000000         -2.9076056401600377E-015
  -11.280000000000001         -3.1499686909516483E-015
  -11.220000000000001         -3.3408569433095265E-015
  -11.160000000000000         -3.4667161654683920E-015
  -11.100000000000000         -3.5137989036788002E-015
  -11.040000000000001         -3.4685303687745964E-015
  -10.980000000000000         -3.3179190553350326E-015
  -10.920000000000000         -3.0500108181539766E-015
  -10.860000000000001         -2.6543761966996523E-015
  -10.800000000000001         -2.1226231388349652E-015
  -10.740000000000000         -1.4489231359827236E-015
  -10.680000000000000         -6.3053936580198548E-016
  -10.620000000000001          3.3165956143598907E-016
  -10.560000000000000          1.4327156943732073E-015
  -10.500000000000000          2.6631444127492242E-015
  -10.440000000000001          4.0085605204089357E-015
  -10.380000000000001          5.4493946724664075E-015
  -10.320000000000000          6.9607030451345899E-015
  -10.260000000000000          8.5121095291202295E-015
  -10.200000000000001          1.0067876255533910E-014
  -10.140000000000001          1.1587134687842021E-014
  -10.080000000000000          1.3024282463048796E-014
  -10.020000000000001          1.4329556328533672E-014
  -9.9600000000000009          1.5449798398145979E-014
  -9.9000000000000004          1.6329399354885274E-014
  -9.8399999999999999          1.6911437302561176E-014
  -9.7800000000000011          1.7138992533211207E-014
  -9.7200000000000006          1.6956630081402559E-014
  -9.6600000000000001          1.6312032637043380E-014
  -9.6000000000000014          1.5157754988914676E-014
  -9.5400000000000009          1.3453077320805894E-014
  -9.4800000000000004          1.1165912525084425E-014
  -9.4199999999999999          8.2747293977811326E-015
  -9.3600000000000012          4.7704480546768554E-015
  -9.3000000000000007          6.5824335246496906E-016
  -9.2400000000000002         -4.0407830748215474E-015
  -9.1799999999999997         -9.2881356580594025E-015
  -9.1200000000000010         -1.5026711357667770E-014
  -9.0600000000000005         -2.1179913028338390E-014
  -9.0000000000000000         -2.7651124128611509E-014
  -8.9400000000000013         -3.4323648098187622E-014
  -8.8800000000000008         -4.1061098033821246E-014
  -8.8200000000000003         -4.7708336178306473E-014
  -8.7599999999999998         -5.4092982272877784E-014
  -8.7000000000000011         -6.0027507504426161E-014
  -8.6400000000000006         -6.5311957051215648E-014
  -8.5800000000000001         -6.9737250471334373E-014
  -8.5200000000000014         -7.3089103879449373E-014
  -8.4600000000000009         -7.5152510431767343E-014
  -8.4000000000000004         -7.5716765604337757E-014
  -8.3399999999999999         -7.4580930000581756E-014
  -8.2800000000000011         -7.1559674031070639E-014
  -8.2200000000000006         -6.6489425642679715E-014
  -8.1600000000000001         -5.9234657019698253E-014
  -8.1000000000000014         -4.9694247032445760E-014
  -8.0400000000000009         -3.7807710535262976E-014
  -7.9800000000000004         -2.3561172779385799E-014
  -7.9200000000000017         -6.9929362815079363E-015
  -7.8599999999999994          1.1801580237448886E-014
  -7.8000000000000007          3.2665639095096119E-014
  -7.7400000000000020          5.5377939937761221E-014
  -7.6799999999999997          7.9650500087650479E-014
  -7.6200000000000010          1.0512779190501564E-013
  -7.5600000000000023          1.3138733107215724E-013
  -7.5000000000000000          1.5794172637016833E-013
  -7.4400000000000013          1.8424248222869482E-013
  -7.3799999999999990          2.0968550158942309E-013
  -7.3200000000000003          2.3361833221177282E-013
  -7.2600000000000016          2.5534916827180680E-013
  -7.1999999999999993          2.7415775295984921E-013
  -7.1400000000000006          2.8930787518043628E-013
  -7.0800000000000018          3.0006142374520836E-013
  -7.0199999999999996          3.0569385622330095E-013
  -6.9600000000000009          3.0551113952028962E-013
  -6.9000000000000021          2.9886726878908914E-013
  -6.8399999999999999          2.8518285160641083E-013
  -6.7800000000000011          2.6396388921148242E-013
  -6.7199999999999989          2.3482062632858041E-013
  -6.6600000000000001          1.9748596800787805E-013
  -6.6000000000000014          1.5183321135614569E-013
  -6.5399999999999991          9.7892470994275170E-014
  -6.4800000000000004          3.5865470341256530E-014
  -6.4200000000000017         -3.3861753418072160E-014
  -6.3599999999999994         -1.1070883454593948E-013
  -6.3000000000000007         -1.9389379100788018E-013
  -6.2400000000000020         -2.8242935514433005E-013
  -6.1799999999999997         -3.7512299270002708E-013
  -6.1200000000000010         -4.7058067725546646E-013
  -6.0600000000000023         -5.6721560289587417E-013
  -6.0000000000000000         -6.6326060001907967E-013
  -5.9400000000000013         -7.5678575874187526E-013
  -5.8799999999999990         -8.4572061369125853E-013
  -5.8200000000000003         -9.2788049956509340E-013
  -5.7600000000000016         -1.0009979798018324E-012
  -5.6999999999999993         -1.0627581590770406E-012
  -5.6400000000000006         -1.1108379955592837E-012
  -5.5800000000000018         -1.1429485951418090E-012
  -5.5199999999999996         -1.1568814127592369E-012
  -5.4600000000000009         -1.1505558716564159E-012
  -5.4000000000000021         -1.1220687784564297E-012
  -5.3399999999999999         -1.0697448364989154E-012
  -5.2800000000000011         -9.9218697924038965E-013
  -5.2200000000000024         -8.8832551573740553E-013
  -5.1600000000000001         -7.5746572024432273E-013
  -5.1000000000000014         -5.9933229836512422E-013
  -5.0399999999999991         -4.1411020127911613E-013
  -4.9800000000000004         -2.0248030472629642E-013
  -4.9200000000000017          3.4350509045124715E-014
  -4.8599999999999994          2.9462615554254624E-013
  -4.8000000000000007          5.7602556356260789E-013
  -4.7400000000000020          8.7565594590494737E-013
  -4.6799999999999997          1.1900541489364943E-012
  -4.6200000000000010          1.5151986285625361E-012
  -4.5600000000000023          1.8465312101019894E-012
  -4.5000000000000000          2.1789890509601827E-012
  -4.4400000000000013          2.5070480468062722E-012
  -4.3799999999999990          2.8247762596415678E-012
  -4.3200000000000003          3.1258977972703672E-012
  -4.2600000000000016          3.4038673467263639E-012
  -4.1999999999999993          3.6519543430483254E-012
  -4.1400000000000006          3.8633353780069329E-012
  -4.0800000000000018          4.0311953501601053E-012
  -4.0199999999999996          4.1488356830776132E-012
  -3.9600000000000009          4.2097885135156852E-012
  -3.9000000000000021          4.2079340183590811E-012
  -3.8399999999999999          4.1376232065517981E-012
  -3.7800000000000011          3.9937999319130272E-012
  -3.7200000000000024          3.7721241190182130E-012
  -3.6600000000000001          3.4690912659563007E-012
  -3.6000000000000014          3.0821503193431852E-012
  -3.5399999999999991          2.6098130674399540E-012
  -3.4800000000000004          2.0517577816078492E-012
  -3.4200000000000017          1.4089221129807703E-012
  -3.3599999999999994          6.8358506699763383E-013
  -3.3000000000000007         -1.2056498441202743E-013
  -3.2400000000000020         -9.9837708941165092E-013
  -3.1799999999999997         -1.9432013110762974E-012
  -3.1200000000000010         -2.9468703766941388E-012
  -3.0600000000000023         -3.9997014709742570E-012
  -3.0000000000000000         -5.0905181259314616E-012
  -2.9400000000000013         -6.2066929074904591E-012
  -2.8800000000000026         -7.3342173278119871E-012
  -2.8200000000000003         -8.4577866005087558E-012
  -2.7600000000000016         -9.5609162321558283E-012
  -2.6999999999999993         -1.0626074930201009E-011
  -2.6400000000000006         -1.1634846841809454E-011
  -2.5800000000000018         -1.2568110916637570E-011
  -2.5199999999999996         -1.3406244017135993E-011
  -2.4600000000000009         -1.4129344417403958E-011
  -2.4000000000000021         -1.4717475193196092E-011
  -2.3399999999999999         -1.5150925567131538E-011
  -2.2800000000000011         -1.5410482443140764E-011
  -2.2200000000000024         -1.5477724212794716E-011
  -2.1600000000000001         -1.5335314191080856E-011
  -2.1000000000000014         -1.4967305982507751E-011
  -2.0399999999999991         -1.4359458980533484E-011
  -1.9800000000000004         -1.3499543107452679E-011
  -1.9200000000000017         -1.2377648759096035E-011
  -1.8599999999999994         -1.0986489575851719E-011
  -1.8000000000000007         -9.3216875588321481E-012
  -1.7400000000000020         -7.3820509005600992E-012
  -1.6799999999999997         -5.1698271887098550E-012
  -1.6200000000000010         -2.6909352498583578E-012
  -1.5600000000000023          4.4833579245995270E-014
  -1.5000000000000000          3.0236455149250191E-012
  -1.4400000000000013          6.2274926921009018E-012
  -1.3800000000000026          9.6341030876355999E-012
  -1.3200000000000003          1.3216895146131081E-011
  -1.2600000000000016          1.6944982168461470E-011
  -1.1999999999999993          2.0783236250623006E-011
  -1.1400000000000006          2.4692389175474735E-011
  -1.0800000000000018          2.8629218446253355E-011
  -1.0199999999999996          3.2546770428903406E-011
 -0.96000000000000085          3.6394666266414824E-011
 -0.90000000000000213          4.0119449764910635E-011
 -0.83999999999999986          4.3665018061365540E-011
 -0.78000000000000114          4.6973106099770115E-011
 -0.72000000000000242          4.9983820412862406E-011
 -0.66000000000000014          5.2636259306362538E-011
 -0.60000000000000142          5.4869164352891582E-011
 -0.53999999999999915          5.6621631069595130E-011
 -0.48000000000000043          5.7833864293451651E-011
 -0.42000000000000171          5.8447976533902832E-011
 -0.35999999999999943          5.8408809854835651E-011
 -0.30000000000000071          5.7664786682726503E-011
 -0.24000000000000199          5.6168777338605185E-011
 -0.17999999999999972          5.3878978950642169E-011
 -0.12000000000000099          5.0759766510908275E-011
  -6.0000000000002274E-002     4.6782550549660106E-011
   0.0000000000000000          4.1926594978290131E-011
   5.9999999999998721E-002     3.6179801783475710E-011
  0.11999999999999744          2.9539430174448426E-011
  0.17999999999999972          2.2012768611593581E-011
  0.23999999999999844          1.3617718697463957E-011
  0.30000000000000071          4.3832881275090845E-012
  0.35999999999999943         -5.6499990979565778E-012
  0.41999999999999815         -1.6429831778100110E-011
  0.48000000000000043         -2.7891930598584639E-011
  0.53999999999999915         -3.9960013493370226E-011
  0.59999999999999787         -5.2545912065913991E-011
  0.66000000000000014         -6.5549768374759829E-011
  0.71999999999999886         -7.8860472476785419E-011
  0.77999999999999758         -9.2356169561522508E-011
  0.83999999999999986         -1.0590495042432898E-010
  0.89999999999999858         -1.1936570922029585E-010
  0.96000000000000085         -1.3258908187595455E-010
   1.0199999999999996         -1.4541861933161959E-010
   1.0799999999999983         -1.5769203817732863E-010
   1.1400000000000006         -1.6924256179014482E-010
   1.1999999999999993         -1.7990045882380335E-010
   1.2599999999999980         -1.8949462852448968E-010
   1.3200000000000003         -1.9785430511656220E-010
   1.3799999999999990         -2.0481078144822205E-010
   1.4399999999999977         -2.1019924411174252E-010
   1.5000000000000000         -2.1386059826802755E-010
   1.5599999999999987         -2.1564335536066212E-010
   1.6199999999999974         -2.1540546966777024E-010
   1.6799999999999997         -2.1301617010463644E-010
   1.7399999999999984         -2.0835772469977507E-010
   1.8000000000000007         -2.0132722989368574E-010
   1.8599999999999994         -1.9183816983366209E-010
   1.9199999999999982         -1.7982202620331267E-010
   1.9800000000000004         -1.6522961615657701E-010
   2.0399999999999991         -1.4803244848622320E-010
   2.0999999999999979         -1.2822380708820592E-010
   2.1600000000000001         -1.0581974855595107E-010
   2.2199999999999989         -8.0859880419375751E-011
   2.2799999999999976         -5.3407990732927456E-011
   2.3399999999999999         -2.3552476675098219E-011
   2.3999999999999986          8.5934164829765349E-012
   2.4599999999999973          4.2891519399405533E-011
   2.5199999999999996          7.9178921213598115E-011
   2.5799999999999983          1.1726827676432141E-010
   2.6400000000000006          1.5694828388855502E-010
   2.6999999999999993          1.9798443362065723E-010
   2.7599999999999980          2.4011984470748549E-010
   2.8200000000000003          2.8307621964601218E-010
   2.8799999999999990          3.2655503744171042E-010
   2.9399999999999977          3.7023889363455543E-010
   3.0000000000000000          4.1379284508100624E-010
   3.0599999999999987          4.5686605288706116E-010
   3.1199999999999974          4.9909328165983180E-010
   3.1799999999999997          5.4009671289447904E-010
   3.2399999999999984          5.7948779833495683E-010
   3.3000000000000007          6.1686899086434533E-010
   3.3599999999999994          6.5183595522270956E-010
   3.4199999999999982          6.8397926169960559E-010
   3.4800000000000004          7.1288675075220890E-010
   3.5399999999999991          7.3814547543012087E-010
   3.5999999999999979          7.5934392892633675E-010
   3.6600000000000001          7.7607415868658082E-010
   3.7199999999999989          7.8793436061284330E-010
   3.7799999999999976          7.9453087749972907E-010
   3.8399999999999999          7.9548076759590878E-010
   3.8999999999999986          7.9041436859768008E-010
   3.9599999999999973          7.7897759638930047E-010
   4.0199999999999996          7.6083489654799638E-010
   4.0799999999999983          7.3567165045781925E-010
   4.1400000000000006          7.0319719275473768E-010
   4.1999999999999993          6.6314772150478940E-010
   4.2599999999999980          6.1528908933323859E-010
   4.3200000000000003          5.5942004476405501E-010
   4.3799999999999990          4.9537546817472722E-010
   4.4399999999999977          4.2302950799445172E-010
   4.5000000000000000          3.4229885897859333E-010
   4.5599999999999987          2.5314618594497104E-010
   4.6199999999999974          1.5558353309809153E-010
   4.6799999999999997          4.9675669469060364E-011
   4.7399999999999984         -6.4456612773037207E-011
   4.7999999999999972         -1.8663314444366417E-010
   4.8599999999999994         -3.1661108296145503E-010
   4.9199999999999982         -4.5408215943868429E-010
   4.9800000000000004         -5.9866961878749159E-010
   5.0399999999999991         -7.4992569758553257E-010
   5.0999999999999979         -9.0732931132380459E-010
   5.1600000000000001         -1.0702843564284551E-009
   5.2199999999999989         -1.2381178903264406E-009
   5.2799999999999976         -1.4100792624871596E-009
   5.3399999999999999         -1.5853397065571276E-009
   5.3999999999999986         -1.7629923541690288E-009
   5.4599999999999973         -1.9420529803002074E-009
   5.5199999999999996         -2.1214624162924945E-009
   5.5799999999999983         -2.3000868155290784E-009
   5.6400000000000006         -2.4767226693493524E-009
   5.6999999999999993         -2.6500996530571475E-009
   5.7599999999999980         -2.8188855873813236E-009
   5.8200000000000003         -2.9816927037719658E-009
   5.8799999999999990         -3.1370827763243246E-009
   5.9399999999999977         -3.2835759208245435E-009
   6.0000000000000000         -3.4196584600337274E-009
   6.0599999999999987         -3.5437921830021255E-009
   6.1199999999999974         -3.6544237104876888E-009
   6.1799999999999997         -3.7499975340671454E-009
   6.2399999999999984         -3.8289643659810799E-009
   6.2999999999999972         -3.8897966173575978E-009
   6.3599999999999994         -3.9309984277928063E-009
   6.4199999999999982         -3.9511222064918245E-009
   6.4800000000000004         -3.9487808212823041E-009
   6.5399999999999991         -3.9226614569851832E-009
   6.5999999999999979         -3.8715412443370297E-009
   6.6600000000000001         -3.7943011778007421E-009
   6.7199999999999989         -3.6899415898155098E-009
   6.7799999999999976         -3.5575957364054580E-009
   6.8399999999999999         -3.3965450936371045E-009
   6.8999999999999986         -3.2062324270691968E-009
   6.9599999999999973         -2.9862759192699690E-009
   7.0199999999999996         -2.7364819270043333E-009
   7.0799999999999983         -2.4568567004141461E-009
   7.1400000000000006         -2.1476184587546095E-009
   7.1999999999999993         -1.8092072370153755E-009
   7.2599999999999980         -1.4422941038247842E-009
   7.3200000000000003         -1.0477897463408258E-009
   7.3799999999999990         -6.2685123331741122E-010
   7.4399999999999977         -1.8088735372808430E-010
   7.5000000000000000          2.8843677458497225E-010
   7.5599999999999987          7.7919700216766219E-010
   7.6199999999999974          1.2892092609534054E-009
   7.6799999999999997          1.8160296171106314E-009
   7.7399999999999984          2.3569556035185566E-009
   7.7999999999999972          2.9090301712605579E-009
   7.8599999999999994          3.4690473196457713E-009
   7.9199999999999982          4.0335566588179340E-009
   7.9800000000000004          4.5988733465911660E-009
   8.0399999999999991          5.1610876799960353E-009
   8.1000000000000014          5.7160755531325501E-009
   8.1599999999999966          6.2595121427123116E-009
   8.2199999999999989          6.7868840517692277E-009
   8.2800000000000011          7.2935081632191264E-009
   8.3399999999999963          7.7745467409697044E-009
   8.3999999999999986          8.2250259473237746E-009
   8.4600000000000009          8.6398538617233782E-009
   8.5199999999999960          9.0138453924477393E-009
   8.5799999999999983          9.3417406178845831E-009
   8.6400000000000006          9.6182298934719280E-009