  -24.000000000000000          0.0000000000000000     
  -23.940000000000001          0.0000000000000000     
  -23.879999999999999          0.0000000000000000     
  -23.820000000000000          0.0000000000000000     
  -23.760000000000002          0.0000000000000000     
  -23.699999999999999          0.0000000000000000     
  -23.640000000000001          0.0000000000000000     
  -23.579999999999998          0.0000000000000000     
  -23.520000000000000          0.0000000000000000     
  -23.460000000000001          0.0000000000000000     
  -23.399999999999999          0.0000000000000000     
  -23.340000000000000          0.0000000000000000     
  -23.280000000000001          0.0000000000000000     
  -23.219999999999999          0.0000000000000000     
  -23.160000000000000          0.0000000000000000     
  -23.100000000000001          0.0000000000000000     
  -23.039999999999999          0.0000000000000000     
  -22.980000000000000          0.0000000000000000     
  -22.920000000000002          0.0000000000000000     
  -22.859999999999999          0.0000000000000000     
  -22.800000000000001          0.0000000000000000     
  -22.739999999999998          0.0000000000000000     
  -22.680000000000000          0.0000000000000000     
  -22.620000000000001          0.0000000000000000     
  -22.559999999999999          0.0000000000000000     
  -22.500000000000000          0.0000000000000000     
  -22.440000000000001          0.0000000000000000     
  -22.379999999999999          0.0000000000000000     
  -22.320000000000000          0.0000000000000000     
  -22.260000000000002          0.0000000000000000     
  -22.199999999999999          0.0000000000000000     
  -22.140000000000001          0.0000000000000000     
  -22.079999999999998          0.0000000000000000     
  -22.020000000000000          0.0000000000000000     
  -21.960000000000001          0.0000000000000000     
  -21.899999999999999          0.0000000000000000     
  -21.840000000000000          0.0000000000000000     
  -21.780000000000001          0.0000000000000000     
  -21.719999999999999          0.0000000000000000     
  -21.660000000000000          0.0000000000000000     
  -21.600000000000001          0.0000000000000000     
  -21.539999999999999          0.0000000000000000     
  -21.480000000000000          0.0000000000000000     
  -21.420000000000002          0.0000000000000000     
  -21.359999999999999          0.0000000000000000     
  -21.300000000000001          0.0000000000000000     
  -21.240000000000002          0.0000000000000000     
  -21.180000000000000          0.0000000000000000     
  -21.120000000000001          0.0000000000000000     
  -21.059999999999999          0.0000000000000000     
  -21.000000000000000          0.0000000000000000     
  -20.940000000000001          0.0000000000000000     
  -20.879999999999999          0.0000000000000000     
  -20.820000000000000          0.0000000000000000     
  -20.760000000000002          0.0000000000000000     
  -20.699999999999999          0.0000000000000000     
  -20.640000000000001          0.0000000000000000     
  -20.579999999999998          0.0000000000000000     
  -20.520000000000000          0.0000000000000000     
  -20.460000000000001          0.0000000000000000     
  -20.399999999999999          0.0000000000000000     
  -20.340000000000000          0.0000000000000000     
  -20.280000000000001          0.0000000000000000     
  -20.219999999999999          0.0000000000000000     
  -20.160000000000000          0.0000000000000000     
  -20.100000000000001          0.0000000000000000     
  -20.039999999999999          0.0000000000000000     
  -19.980000000000000          0.0000000000000000     
  -19.920000000000002          0.0000000000000000     
  -19.859999999999999          0.0000000000000000     
  -19.800000000000001          0.0000000000000000     
  -19.740000000000002          0.0000000000000000     
  -19.680000000000000          0.0000000000000000     
  -19.620000000000001          0.0000000000000000     
  -19.560000000000002          0.0000000000000000     
  -19.500000000000000          0.0000000000000000     
  -19.440000000000001          0.0000000000000000     
  -19.379999999999999          0.0000000000000000     
  -19.320000000000000          0.0000000000000000     
  -19.259999999999998          0.0000000000000000     
  -19.199999999999999          0.0000000000000000     
  -19.140000000000001          0.0000000000000000     
  -19.079999999999998          0.0000000000000000     
  -19.020000000000000          0.0000000000000000     
  -18.960000000000001          0.0000000000000000     
  -18.899999999999999          0.0000000000000000     
  -18.840000000000000          0.0000000000000000     
  -18.780000000000001          0.0000000000000000     
  -18.719999999999999          0.0000000000000000     
  -18.660000000000000          0.0000000000000000     
  -18.600000000000001          0.0000000000000000     
  -18.539999999999999          0.0000000000000000     
  -18.480000000000000          0.0000000000000000     
  -18.420000000000002          0.0000000000000000     
  -18.359999999999999          0.0000000000000000     
  -18.300000000000001          0.0000000000000000     
  -18.240000000000002          0.0000000000000000     
  -18.180000000000000          0.0000000000000000     
  -18.120000000000001          0.0000000000000000     
  -18.060000000000002          0.0000000000000000     
  -18.000000000000000          0.0000000000000000     
  -17.940000000000001          0.0000000000000000     
  -17.879999999999999          0.0000000000000000     
  -17.820000000000000          0.0000000000000000     
  -17.759999999999998          0.0000000000000000     
  -17.699999999999999          0.0000000000000000     
  -17.640000000000001          0.0000000000000000     
  -17.579999999999998          0.0000000000000000     
  -17.520000000000000          0.0000000000000000     
  -17.460000000000001          0.0000000000000000     
  -17.399999999999999          0.0000000000000000     
  -17.340000000000000          0.0000000000000000     
  -17.280000000000001          0.0000000000000000     
  -17.219999999999999          0.0000000000000000     
  -17.160000000000000          0.0000000000000000     
  -17.100000000000001          0.0000000000000000     
  -17.039999999999999          0.0000000000000000     
  -16.980000000000000          0.0000000000000000     
  -16.920000000000002          0.0000000000000000     
  -16.859999999999999          0.0000000000000000     
  -16.800000000000001          0.0000000000000000     
  -16.740000000000002          0.0000000000000000     
  -16.680000000000000          0.0000000000000000     
  -16.620000000000001          0.0000000000000000     
  -16.560000000000002          0.0000000000000000     
  -16.500000000000000          0.0000000000000000     
  -16.440000000000001          0.0000000000000000     
  -16.379999999999999          0.0000000000000000     
  -16.320000000000000          0.0000000000000000     
  -16.260000000000002          0.0000000000000000     
  -16.199999999999999          0.0000000000000000     
  -16.140000000000001          0.0000000000000000     
  -16.079999999999998          0.0000000000000000     
  -16.020000000000000          0.0000000000000000     
  -15.960000000000001          0.0000000000000000     
  -15.900000000000000          0.0000000000000000     
  -15.840000000000000          0.0000000000000000     
  -15.780000000000001          0.0000000000000000     
  -15.720000000000001          0.0000000000000000     
  -15.660000000000000          0.0000000000000000     
  -15.600000000000000          0.0000000000000000     
  -15.540000000000001          0.0000000000000000     
  -15.480000000000000          0.0000000000000000     
  -15.420000000000000          0.0000000000000000     
  -15.359999999999999          0.0000000000000000     
  -15.300000000000001          0.0000000000000000     
  -15.240000000000000          0.0000000000000000     
  -15.180000000000000          0.0000000000000000     
  -15.120000000000001          0.0000000000000000     
  -15.060000000000000          0.0000000000000000     
  -15.000000000000000          0.0000000000000000     
  -14.940000000000000          0.0000000000000000     
  -14.880000000000001          0.0000000000000000     
  -14.820000000000000          0.0000000000000000     
  -14.760000000000000          0.0000000000000000     
  -14.700000000000001          0.0000000000000000     
  -14.640000000000001          0.0000000000000000     
  -14.580000000000000          0.0000000000000000     
  -14.520000000000000          0.0000000000000000     
  -14.460000000000001          0.0000000000000000     
  -14.400000000000000          0.0000000000000000     
  -14.340000000000000          0.0000000000000000     
  -14.280000000000001          0.0000000000000000     
  -14.220000000000001          0.0000000000000000     
  -14.160000000000000          0.0000000000000000     
  -14.100000000000000          0.0000000000000000     
  -14.040000000000001          0.0000000000000000     
  -13.980000000000000          0.0000000000000000     
  -13.920000000000000          0.0000000000000000     
  -13.860000000000001          0.0000000000000000     
  -13.800000000000001          0.0000000000000000     
  -13.740000000000000          0.0000000000000000     
  -13.680000000000000          0.0000000000000000     
  -13.620000000000001          0.0000000000000000     
  -13.560000000000000          0.0000000000000000     
  -13.500000000000000          0.0000000000000000     
  -13.440000000000001          0.0000000000000000     
  -13.380000000000001          0.0000000000000000     
  -13.320000000000000          0.0000000000000000     
  -13.260000000000000          0.0000000000000000     
  -13.200000000000001          0.0000000000000000     
  -13.140000000000001          0.0000000000000000     
  -13.080000000000000          0.0000000000000000     
  -13.020000000000000          0.0000000000000000     
  -12.960000000000001          0.0000000000000000     
  -12.900000000000000          0.0000000000000000     
  -12.840000000000000          0.0000000000000000     
  -12.780000000000001          0.0000000000000000     
  -12.720000000000001          0.0000000000000000     
  -12.660000000000000          0.0000000000000000     
  -12.600000000000000          0.0000000000000000     
  -12.540000000000001          0.0000000000000000     
  -12.480000000000000          0.0000000000000000     
  -12.420000000000000          0.0000000000000000     
  -12.360000000000001          0.0000000000000000     
  -12.300000000000001          0.0000000000000000     
  -12.240000000000000          0.0000000000000000     
  -12.180000000000000          0.0000000000000000     
  -12.120000000000001          0.0000000000000000     
  -12.060000000000000          0.0000000000000000     
  -12.000000000000000          0.0000000000000000     
  -11.940000000000001          0.0000000000000000     
  -11.880000000000001          0.0000000000000000     
  -11.820000000000000          0.0000000000000000     
  -11.760000000000000          0.0000000000000000     
  -11.700000000000001          0.0000000000000000     
  -11.640000000000001          0.0000000000000000     
  -11.580000000000000          0.0000000000000000     
  -11.520000000000000          0.0000000000000000     
  -11.460000000000001          0.0000000000000000     
  -11.400000000000000          0.0000000000000000     
  -11.340000000000000          0.0000000000000000     
  -11.280000000000001          0.0000000000000000     
  -11.220000000000001          0.0000000000000000     
  -11.160000000000000          0.0000000000000000     
  -11.100000000000000          0.0000000000000000     
  -11.040000000000001          0.0000000000000000     
  -10.980000000000000          0.0000000000000000     
  -10.920000000000000          0.0000000000000000     
  -10.860000000000001          0.0000000000000000     
  -10.800000000000001          0.0000000000000000     
  -10.740000000000000          0.0000000000000000     
  -10.680000000000000          0.0000000000000000     
  -10.620000000000001          0.0000000000000000     
  -10.560000000000000          0.0000000000000000     
  -10.500000000000000          0.0000000000000000     
  -10.440000000000001          0.0000000000000000     
  -10.380000000000001          0.0000000000000000     
  -10.320000000000000          0.0000000000000000     
  -10.260000000000000          0.0000000000000000     
  -10.200000000000001          0.0000000000000000     
  -10.140000000000001          0.0000000000000000     
  -10.080000000000000          0.0000000000000000     
  -10.020000000000001          0.0000000000000000     
  -9.9600000000000009          0.0000000000000000     
  -9.9000000000000004          0.0000000000000000     
  -9.8399999999999999          0.0000000000000000     
  -9.7800000000000011          0.0000000000000000     
  -9.7200000000000006          0.0000000000000000     
  -9.6600000000000001          0.0000000000000000     
  -9.6000000000000014          0.0000000000000000     
  -9.5400000000000009          0.0000000000000000     
  -9.4800000000000004          0.0000000000000000     
  -9.4199999999999999          0.0000000000000000     
  -9.3600000000000012          0.0000000000000000     
  -9.3000000000000007          0.0000000000000000     
  -9.2400000000000002          0.0000000000000000     
  -9.1799999999999997          0.0000000000000000     
  -9.1200000000000010          0.0000000000000000     
  -9.0600000000000005          0.0000000000000000     
  -9.0000000000000000          0.0000000000000000     
  -8.9400000000000013          0.0000000000000000     
  -8.8800000000000008          0.0000000000000000     
  -8.8200000000000003          0.0000000000000000     
  -8.7599999999999998          0.0000000000000000     
  -8.7000000000000011          0.0000000000000000     
  -8.6400000000000006          0.0000000000000000     
  -8.5800000000000001          0.0000000000000000     
  -8.5200000000000014          0.0000000000000000     
  -8.4600000000000009          0.0000000000000000     
  -8.4000000000000004          0.0000000000000000     
  -8.3399999999999999          0.0000000000000000     
  -8.2800000000000011          0.0000000000000000     
  -8.2200000000000006          0.0000000000000000     
  -8.1600000000000001          0.0000000000000000     
  -8.1000000000000014          0.0000000000000000     
  -8.0400000000000009          0.0000000000000000     
  -7.9800000000000004          0.0000000000000000     
  -7.9200000000000017          0.0000000000000000     
  -7.8599999999999994          0.0000000000000000     
  -7.8000000000000007          0.0000000000000000     
  -7.7400000000000020          0.0000000000000000     
  -7.6799999999999997          0.0000000000000000     
  -7.6200000000000010          0.0000000000000000     
  -7.5600000000000023          0.0000000000000000     
  -7.5000000000000000          0.0000000000000000     
  -7.4400000000000013          0.0000000000000000     
  -7.3799999999999990          0.0000000000000000     
  -7.3200000000000003          0.0000000000000000     
  -7.2600000000000016          0.0000000000000000     
  -7.1999999999999993          0.0000000000000000     
  -7.1400000000000006          0.0000000000000000     
  -7.0800000000000018          0.0000000000000000     
  -7.0199999999999996          0.0000000000000000     
  -6.9600000000000009          0.0000000000000000     
  -6.9000000000000021          0.0000000000000000     
  -6.8399999999999999          0.0000000000000000     
  -6.7800000000000011          0.0000000000000000     
  -6.7199999999999989          0.0000000000000000     
  -6.6600000000000001          0.0000000000000000     
  -6.6000000000000014          0.0000000000000000     
  -6.5399999999999991          0.0000000000000000     
  -6.4800000000000004          0.0000000000000000     
  -6.4200000000000017          0.0000000000000000     
  -6.3599999999999994          0.0000000000000000     
  -6.3000000000000007          0.0000000000000000     
  -6.2400000000000020          0.0000000000000000     
  -6.1799999999999997          0.0000000000000000     
  -6.1200000000000010          0.0000000000000000     
  -6.0600000000000023          0.0000000000000000     
  -6.0000000000000000          0.0000000000000000     
  -5.9400000000000013          0.0000000000000000     
  -5.8799999999999990          0.0000000000000000     
  -5.8200000000000003          0.0000000000000000     
  -5.7600000000000016          0.0000000000000000     
  -5.6999999999999993          0.0000000000000000     
  -5.6400000000000006          0.0000000000000000     
  -5.5800000000000018          0.0000000000000000     
  -5.5199999999999996          0.0000000000000000     
  -5.4600000000000009          0.0000000000000000     
  -5.4000000000000021          0.0000000000000000     
  -5.3399999999999999          0.0000000000000000     
  -5.2800000000000011          0.0000000000000000     
  -5.2200000000000024          0.0000000000000000     
  -5.1600000000000001          0.0000000000000000     
  -5.1000000000000014          0.0000000000000000     
  -5.0399999999999991          0.0000000000000000     
  -4.9800000000000004          0.0000000000000000     
  -4.9200000000000017          0.0000000000000000     
  -4.8599999999999994          0.0000000000000000     
  -4.8000000000000007          0.0000000000000000     
  -4.7400000000000020          0.0000000000000000     
  -4.6799999999999997          0.0000000000000000     
  -4.6200000000000010          0.0000000000000000     
  -4.5600000000000023          0.0000000000000000     
  -4.5000000000000000          0.0000000000000000     
  -4.4400000000000013          0.0000000000000000     
  -4.3799999999999990          6.1980198624644374E-040
  -4.3200000000000003          1.6712406320375845E-039
  -4.2600000000000016          3.2421732806929737E-039
  -4.1999999999999993          5.7394087726159111E-039
  -4.1400000000000006          8.9535812364743546E-039
  -4.0800000000000018          1.2942572611804426E-038
  -4.0199999999999996          1.7184758822529588E-038
  -3.9600000000000009          2.1933855649474409E-038
  -3.9000000000000021          2.7180808564936029E-038
  -3.8399999999999999          3.2894927858579118E-038
  -3.7800000000000011          3.9487753331999665E-038
  -3.7200000000000024          4.6336572098235796E-038
  -3.6600000000000001          5.3600096502237996E-038
  -3.6000000000000014          6.1022333251190686E-038
  -3.5399999999999991          6.8356677882830444E-038
  -3.4800000000000004          7.5303056379519780E-038
  -3.4200000000000017          7.8738787170792341E-038
  -3.3599999999999994          7.8078965486275651E-038
  -3.3000000000000007          7.2808916142158280E-038
  -3.2400000000000020          6.2859193923228783E-038
  -3.1799999999999997          5.0865453867447483E-038
  -3.1200000000000010          3.6045214410825711E-038
  -3.0600000000000023          1.9859522849566524E-038
  -3.0000000000000000          2.2409696357524782E-039
  -2.9400000000000013         -1.6793831020286366E-038
  -2.8800000000000026         -3.6945685746757589E-038
  -2.8200000000000003         -5.7850045555471063E-038
  -2.7600000000000016         -7.9148940959624414E-038
  -2.6999999999999993         -1.0115149654363395E-037
  -2.6400000000000006         -1.2433307201697327E-037
  -2.5800000000000018         -1.4856047910653431E-037
  -2.5199999999999996         -1.7196445638607611E-037
  -2.4600000000000009         -1.9449784607968392E-037
  -2.4000000000000021         -2.1037062045294872E-037
  -2.3399999999999999         -2.2039719561479027E-037
  -2.2800000000000011         -2.2534188494245297E-037
  -2.2200000000000024         -2.2504502766818482E-037
  -2.1600000000000001         -2.2268453800875245E-037
  -2.1000000000000014         -2.1764565509893654E-037
  -2.0399999999999991         -2.0916460748331936E-037
  -1.9800000000000004         -1.9163925513951069E-037
  -1.9200000000000017         -1.6537635246603179E-037
  -1.8599999999999994         -1.3030012969717588E-037
  -1.8000000000000007         -8.6579972099293704E-038
  -1.7400000000000020         -3.4335040284250014E-038
  -1.6799999999999997          2.5893404701910614E-038
  -1.6200000000000010          9.2228597909572856E-038
  -1.5600000000000023          1.6304446171675787E-037
  -1.5000000000000000          2.3808287453205184E-037
  -1.4400000000000013          3.0723613447669522E-037
  -1.3800000000000026          3.7421214963438411E-037
  -1.3200000000000003          4.3633040047806164E-037
  -1.2600000000000016          4.8892996095064557E-037
  -1.1999999999999993          5.3182194095806761E-037
  -1.1400000000000006          5.5855157664710814E-037
  -1.0800000000000018          5.6202111541077202E-037
  -1.0199999999999996          5.3898396468718779E-037
 -0.96000000000000085          4.8522235780202747E-037
 -0.90000000000000213          3.9679498899689668E-037
 -0.83999999999999986          2.7196256762982310E-037
 -0.78000000000000114          1.0520539421398821E-037
 -0.72000000000000242         -1.0670570945641029E-037
 -0.66000000000000014         -3.5888361791311367E-037
 -0.60000000000000142         -6.5568601533792608E-037
 -0.53999999999999915         -1.0014049346349123E-036
 -0.48000000000000043         -1.3834662484407366E-036
 -0.42000000000000171         -1.8039663282927464E-036
 -0.35999999999999943         -2.2539310351696052E-036
 -0.30000000000000071         -2.7172543172718055E-036
 -0.24000000000000199         -3.1812779091824400E-036
 -0.17999999999999972         -3.6202171247687156E-036
 -0.12000000000000099         -4.0135733984516379E-036
  -6.0000000000002274E-002    -4.3379470754191788E-036
   0.0000000000000000         -4.5684451520896386E-036
   5.9999999999998721E-002    -4.6783558431270553E-036
  0.11999999999999744         -4.6383953276647667E-036
  0.17999999999999972         -4.4215259809456000E-036
  0.23999999999999844         -3.9986257729321328E-036
  0.30000000000000071         -3.3200296758709465E-036
  0.35999999999999943         -2.3635488425017768E-036
  0.41999999999999815         -1.1032695597195202E-036
  0.48000000000000043          4.7436021843758403E-037
  0.53999999999999915          2.3971271737124905E-036
  0.59999999999999787          4.6585789765361948E-036
  0.66000000000000014          7.2623624797482475E-036
  0.71999999999999886          1.0194730398918634E-035
  0.77999999999999758          1.3423757032912491E-035
  0.83999999999999986          1.6900189165733486E-035
  0.89999999999999858          2.0552631278624551E-035
  0.96000000000000085          2.4289972776506257E-035
   1.0199999999999996          2.8000399075005508E-035
   1.0799999999999983          3.1534220574533884E-035
   1.1400000000000006          3.4739618450217820E-035
   1.1999999999999993          3.7448692248751979E-035
   1.2599999999999980          3.9471761258606172E-035
   1.3200000000000003          4.0614012026394620E-035
   1.3799999999999990          4.0647306101218156E-035
   1.4399999999999977          3.9365285865126645E-035
   1.5000000000000000          3.6498546123668307E-035
   1.5599999999999987          3.1829218152528408E-035
   1.6199999999999974          2.5145872541477598E-035
   1.6799999999999997          1.6246846693832565E-035
   1.7399999999999984          4.9765597830902814E-036
   1.8000000000000007         -8.7750345518000304E-036
   1.8599999999999994         -2.5063841978143003E-035
   1.9199999999999982         -4.3879784083134611E-035
   1.9800000000000004         -6.5122275630083488E-035
   2.0399999999999991         -8.8598718829651042E-035
   2.0999999999999979         -1.1401336361704813E-034
   2.1600000000000001         -1.4094932681525072E-034
   2.2199999999999989         -1.6885846418248582E-034
   2.2799999999999976         -1.9706216802301527E-034
   2.3399999999999999         -2.2474920634463136E-034
   2.3999999999999986         -2.5099041173310882E-034
   2.4599999999999973         -2.7471805477532151E-034
   2.5199999999999996         -2.9470967870511032E-034
   2.5799999999999983         -3.0964616448269367E-034
   2.6400000000000006         -3.1808646103929741E-034
   2.6999999999999993         -3.1853971020096099E-034
   2.7599999999999980         -3.0949011498698971E-034
   2.8200000000000003         -2.8941589877852070E-034
   2.8799999999999990         -2.5684886302593077E-034
   2.9399999999999977         -2.1043338823325073E-034
   3.0000000000000000         -1.4897252644071869E-034
   3.0599999999999987         -7.1500961794541156E-035
   3.1199999999999974          2.2644128584997037E-035
   3.1799999999999997          1.3374788610234176E-034
   3.2399999999999984          2.6164914502023662E-034
   3.3000000000000007          4.0565944925002801E-034
   3.3599999999999994          5.6447281730767943E-034
   3.4199999999999982          7.3609144287847149E-034
   3.4800000000000004          9.1778806711900522E-034
   3.5399999999999991          1.1060539343571146E-033
   3.5999999999999979          1.2965411369433157E-033
   3.6600000000000001          1.4840712449191615E-033
   3.7199999999999989          1.6625910934154546E-033
   3.7799999999999976          1.8252256250034837E-033
   3.8399999999999999          1.9643279940587327E-033
   3.8999999999999986          2.0715811633368367E-033
   3.9599999999999973          2.1380725391503106E-033
   4.0199999999999996          2.1544962961861625E-033
   4.0799999999999983          2.1113415551454394E-033
   4.1400000000000006          1.9991295114736893E-033
   4.1999999999999993          1.8086921380707359E-033
   4.2599999999999980          1.5314880355225327E-033
   4.3200000000000003          1.1599638716188176E-033
   4.3799999999999990          6.8794360327498795E-034
   4.4399999999999977          1.1104165109936838E-034
   4.5000000000000000         -5.7289118761615396E-034
   4.5599999999999987         -1.3633234375047317E-033
   4.6199999999999974         -2.2565901956775100E-033
   4.6799999999999997         -3.2454573857909696E-033
   4.7399999999999984         -4.3186918657888607E-033
   4.7999999999999972         -5.4607295184531508E-033
   4.8599999999999994         -6.6513203643720918E-033
   4.9199999999999982         -7.8653229524896876E-033
   4.9800000000000004         -9.0725612738276837E-033
   5.0399999999999991         -1.0237833839435440E-032
   5.0999999999999979         -1.1321014406165170E-032
   5.1600000000000001         -1.2277347743916122E-032
   5.2199999999999989         -1.3057910463222182E-032
   5.2799999999999976         -1.3610270926150533E-032
   5.3399999999999999         -1.3879353517675882E-032
   5.3999999999999986         -1.3808520404541100E-032
   5.4599999999999973         -1.3340890322481343E-032
   5.5199999999999996         -1.2420864403149033E-032
   5.5799999999999983         -1.0995888632644489E-032
   5.6400000000000006         -9.0184162944069790E-033
   5.6999999999999993         -6.4480666030078377E-033
   5.7599999999999980         -3.2539312737472669E-033
   5.8200000000000003          5.8297851970912646E-034
   5.8799999999999990          5.0672214172328386E-033
   5.9399999999999977          1.0186400707130217E-032
   6.0000000000000000          1.5908662656390826E-032
   6.0599999999999987          2.2180332470742249E-032
   6.1199999999999974          2.8923759455386635E-032
   6.1799999999999997          3.6035436209305414E-032
   6.2399999999999984          4.3384545500064536E-032
   6.2999999999999972          5.0811970286628901E-032
   6.3599999999999994          5.8129948005806725E-032
   6.4199999999999982          6.5122395926116679E-032
   6.4800000000000004          7.1546087748724413E-032
   6.5399999999999991          7.7132761201493913E-032
   6.5999999999999979          8.1592178701657119E-032
   6.6600000000000001          8.4616310933655571E-032
   6.7199999999999989          8.5884694745898174E-032
   6.7799999999999976          8.5070939415318171E-032
   6.8399999999999999          8.1850464054606851E-032
   6.8999999999999986          7.5909410867500987E-032
   6.9599999999999973          6.6954731471132799E-032
   7.0199999999999996          5.4725287138334635E-032
   7.0799999999999983          3.9003949607862522E-032
   7.1400000000000006          1.9630408760048838E-032
   7.1999999999999993         -3.4854826709789444E-033
   7.2599999999999980         -3.0350028082850444E-032
   7.3200000000000003         -6.0872061086682303E-032
   7.3799999999999990         -9.4849768020613269E-032
   7.4399999999999977         -1.3195826822195494E-031
   7.5000000000000000         -1.7173842479570581E-031
   7.5599999999999987         -2.1358744241465348E-031
   7.6199999999999974         -2.5675172809541178E-031
   7.6799999999999997         -3.0032244319987822E-031
   7.7399999999999984         -3.4323454758340585E-031
   7.7999999999999972         -3.8426960199806380E-031
   7.8599999999999994         -4.2206297468073842E-031
   7.9199999999999982         -4.5511600482936811E-031
   7.9800000000000004         -4.8181353711981601E-031
   8.0399999999999991         -5.0044701039339278E-031
   8.1000000000000014         -5.0924364754360847E-031
   8.1599999999999966         -5.0640183128883534E-031
   8.2199999999999989         -4.9013256796883137E-031
   8.2800000000000011         -4.5870719945254026E-031
   8.3399999999999963         -4.1051071568437963E-031
   8.3999999999999986         -3.4410049801685087E-031
   8.4600000000000009         -2.5826986766194436E-031
   8.5199999999999960         -1.5211505431315984E-031
   8.5799999999999983         -2.5104890787100998E-032
   8.6400000000000006          1.2284792886899879E-031