  -24.000000000000000          0.0000000000000000     
  -23.940000000000001          0.0000000000000000     
  -23.879999999999999          0.0000000000000000     
  -23.820000000000000          0.0000000000000000     
  -23.760000000000002          0.0000000000000000     
  -23.699999999999999          0.0000000000000000     
  -23.640000000000001          0.0000000000000000     
  -23.579999999999998          0.0000000000000000     
  -23.520000000000000          0.0000000000000000     
  -23.460000000000001          0.0000000000000000     
  -23.399999999999999          0.0000000000000000     
  -23.340000000000000          0.0000000000000000     
  -23.280000000000001          0.0000000000000000     
  -23.219999999999999          0.0000000000000000     
  -23.160000000000000          0.0000000000000000     
  -23.100000000000001          0.0000000000000000     
  -23.039999999999999          0.0000000000000000     
  -22.980000000000000          0.0000000000000000     
  -22.920000000000002          0.0000000000000000     
  -22.859999999999999          0.0000000000000000     
  -22.800000000000001          0.0000000000000000     
  -22.739999999999998          0.0000000000000000     
  -22.680000000000000          0.0000000000000000     
  -22.620000000000001          0.0000000000000000     
  -22.559999999999999          0.0000000000000000     
  -22.500000000000000          0.0000000000000000     
  -22.440000000000001          0.0000000000000000     
  -22.379999999999999          0.0000000000000000     
  -22.320000000000000          0.0000000000000000     
  -22.260000000000002          0.0000000000000000     
  -22.199999999999999          0.0000000000000000     
  -22.140000000000001          0.0000000000000000     
  -22.079999999999998          0.0000000000000000     
  -22.020000000000000          0.0000000000000000     
  -21.960000000000001          0.0000000000000000     
  -21.899999999999999          0.0000000000000000     
  -21.840000000000000          0.0000000000000000     
  -21.780000000000001          0.0000000000000000     
  -21.719999999999999          0.0000000000000000     
  -21.660000000000000          0.0000000000000000     
  -21.600000000000001          0.0000000000000000     
  -21.539999999999999          0.0000000000000000     
  -21.480000000000000          0.0000000000000000     
  -21.420000000000002          0.0000000000000000     
  -21.359999999999999          0.0000000000000000     
  -21.300000000000001          0.0000000000000000     
  -21.240000000000002          0.0000000000000000     
  -21.180000000000000          0.0000000000000000     
  -21.120000000000001          0.0000000000000000     
  -21.059999999999999          0.0000000000000000     
  -21.000000000000000          0.0000000000000000     
  -20.940000000000001          0.0000000000000000     
  -20.879999999999999          0.0000000000000000     
  -20.820000000000000          0.0000000000000000     
  -20.760000000000002          0.0000000000000000     
  -20.699999999999999          0.0000000000000000     
  -20.640000000000001          0.0000000000000000     
  -20.579999999999998          0.0000000000000000     
  -20.520000000000000          0.0000000000000000     
  -20.460000000000001          0.0000000000000000     
  -20.399999999999999          0.0000000000000000     
  -20.340000000000000          0.0000000000000000     
  -20.280000000000001          0.0000000000000000     
  -20.219999999999999          0.0000000000000000     
  -20.160000000000000          0.0000000000000000     
  -20.100000000000001          0.0000000000000000     
  -20.039999999999999          0.0000000000000000     
  -19.980000000000000          0.0000000000000000     
  -19.920000000000002          0.0000000000000000     
  -19.859999999999999          0.0000000000000000     
  -19.800000000000001          0.0000000000000000     
  -19.740000000000002          4.4322817550895950E-040
  -19.680000000000000          1.0221356728351928E-039
  -19.620000000000001          1.6672832662527201E-039
  -19.560000000000002          2.3124310091762588E-039
  -19.500000000000000          2.9575787520997976E-039
  -19.440000000000001          3.5328354247540147E-039
  -19.379999999999999          3.5328354247540147E-039
  -19.320000000000000          2.5673827135996624E-039
  -19.259999999999998          1.3336839244647733E-039
  -19.199999999999999         -2.1297837010602693E-039
  -19.140000000000001         -8.9350700966979743E-039
  -19.079999999999998         -1.7726754359955423E-038
  -19.020000000000000         -2.7331416432461839E-038
  -18.960000000000001         -3.7816263452567583E-038
  -18.899999999999999         -4.9232267401819122E-038
  -18.840000000000000         -6.1594189905770728E-038
  -18.780000000000001         -7.4853636466514688E-038
  -18.719999999999999         -8.7580069821386198E-038
  -18.660000000000000         -9.9700993418391258E-038
  -18.600000000000001         -1.1097619513781433E-037
  -18.539999999999999         -1.2067241106293538E-037
  -18.480000000000000         -1.2852883706608583E-037
  -18.420000000000002         -1.3129322584988786E-037
  -18.359999999999999         -1.2776384763050927E-037
  -18.300000000000001         -1.1586597959626957E-037
  -18.240000000000002         -9.2504956286471608E-038
  -18.180000000000000         -5.3999046271903290E-038
  -18.120000000000001          3.8936797046244781E-039
  -18.060000000000002          8.5888431595267429E-038
  -18.000000000000000          1.9700961225730898E-037
  -17.940000000000001          3.4243619135041122E-037
  -17.879999999999999          5.2166147712873496E-037
  -17.820000000000000          7.3679666534239224E-037
  -17.759999999999998          9.7482402823734779E-037
  -17.699999999999999          1.2346517521926872E-036
  -17.640000000000001          1.4915674902652711E-036
  -17.579999999999998          1.7559174746922910E-036
  -17.520000000000000          1.9970927728272443E-036
  -17.460000000000001          2.1961528306413489E-036
  -17.399999999999999          2.3161602033165591E-036
  -17.340000000000000          2.3120100974683315E-036
  -17.280000000000001          2.1390554234173200E-036
  -17.219999999999999          1.7319585286771598E-036
  -17.160000000000000          1.0163042446174289E-036
  -17.100000000000001         -9.0795465502467747E-038
  -17.039999999999999         -1.6843501091563030E-036
  -16.980000000000000         -3.8502662984526741E-036
  -16.920000000000002         -6.6737867538272360E-036
  -16.859999999999999         -1.0162040386006087E-035
  -16.800000000000001         -1.4367404538628993E-035
  -16.740000000000002         -1.9331300723934876E-035
  -16.680000000000000         -2.5020517172975075E-035
  -16.620000000000001         -3.1336683743254661E-035
  -16.560000000000002         -3.8099745386154498E-035
  -16.500000000000000         -4.5029772724791858E-035
  -16.440000000000001         -5.1721727147553985E-035
  -16.379999999999999         -5.7636199755943346E-035
  -16.320000000000000         -6.2076906791056789E-035
  -16.260000000000002         -6.4186522154506569E-035
  -16.199999999999999         -6.2933571201366133E-035
  -16.140000000000001         -5.7129188177156638E-035
  -16.079999999999998         -4.5432192173930562E-035
  -16.020000000000000         -2.6387407371682663E-035
  -15.960000000000001          1.4876378153577712E-036
  -15.900000000000000          3.9672651127791264E-035
  -15.840000000000000          8.9592967143064206E-035
  -15.780000000000001          1.5238891312829073E-034
  -15.720000000000001          2.2881318888452940E-034
  -15.660000000000000          3.1900747883757562E-034
  -15.600000000000000          4.2233144268811905E-034
  -15.540000000000001          5.3710521630902752E-034
  -15.480000000000000          6.6037492089868662E-034
  -15.420000000000000          7.8758506690350789E-034
  -15.359999999999999          9.1236879011861997E-034
  -15.300000000000001          1.0263256490091698E-033
  -15.240000000000000          1.1188290354621801E-033
  -15.180000000000000          1.1769388763766082E-033
  -15.120000000000001          1.1853433288223935E-033
  -15.060000000000000          1.1265055820589081E-033
  -15.000000000000000          9.8095193724867114E-034
  -14.940000000000000          7.2780458842360184E-034
  -14.880000000000001          3.4547899614507102E-034
  -14.820000000000000         -1.8724186226873937E-034
  -14.760000000000000         -8.8990341919808357E-034
  -14.700000000000001         -1.7787106137844466E-033
  -14.640000000000001         -2.8645374222040644E-033
  -14.580000000000000         -4.1506079815498638E-033
  -14.520000000000000         -5.6299151127166686E-033
  -14.460000000000001         -7.2823846389998041E-033
  -14.400000000000000         -9.0718832883805188E-033
  -14.340000000000000         -1.0943206705000087E-032
  -14.280000000000001         -1.2819240496421024E-032
  -14.220000000000001         -1.4598344026496352E-032
  -14.160000000000000         -1.6152478483309006E-032
  -14.100000000000000         -1.7326032123880273E-032
  -14.040000000000001         -1.7935847656304407E-032
  -13.980000000000000         -1.7772730152518303E-032
  -13.920000000000000         -1.6604785706196611E-032
  -13.860000000000001         -1.4182975311278858E-032
  -13.800000000000001         -1.0249183932535736E-032
  -13.740000000000000         -4.5471450849581172E-033
  -13.680000000000000          3.1635668585377400E-033
  -13.620000000000001          1.3090304702002534E-032
  -13.560000000000000          2.5386876415001200E-032
  -13.500000000000000          4.0129953100447447E-032
  -13.440000000000001          5.7292721253398675E-032
  -13.380000000000001          7.6716331735603976E-032
  -13.320000000000000          9.8079987698504977E-032
  -13.260000000000000          1.2087082822156268E-031
  -13.200000000000001          1.4435505164126362E-031
  -13.140000000000001          1.6755210781582363E-031
  -13.080000000000000          1.8921402030815219E-031
  -13.020000000000000          2.0781241462237259E-031
  -12.960000000000001          2.2153569276792834E-031
  -12.900000000000000          2.2829962380011051E-031
  -12.840000000000000          2.2577414498262892E-031
  -12.780000000000001          2.1142959198048343E-031
  -12.720000000000001          1.8260507629693238E-031
  -12.660000000000000          1.3660183971657779E-031
  -12.600000000000000          7.0803529935434324E-032
  -12.540000000000001         -1.7175316986506583E-032
  -12.480000000000000         -1.2931209348446846E-031
  -12.420000000000000         -2.6697150567683398E-031
  -12.360000000000001         -4.3067587639620797E-031
  -12.300000000000001         -6.1985454736063294E-031
  -12.240000000000000         -8.3257946458256581E-031
  -12.180000000000000         -1.0652950053897071E-030
  -12.120000000000001         -1.3125535290143929E-030
  -12.060000000000000         -1.5667706991224923E-030
  -12.000000000000000         -1.8180167624751304E-030
  -11.940000000000001         -2.0538620720151690E-030
  -11.880000000000001         -2.2592984256240240E-030
  -11.820000000000000         -2.4167582555656181E-030
  -11.760000000000000         -2.5062563342959258E-030
  -11.700000000000001         -2.5056759031691826E-030
  -11.640000000000001         -2.3912258970935498E-030
  -11.580000000000000         -2.1380859664977655E-030
  -11.520000000000000         -1.7212620949390514E-030
  -11.460000000000001         -1.1166626988209843E-030
  -11.400000000000000         -3.0240110961598735E-031
  -11.340000000000000          7.3967548761460164E-031
  -11.280000000000001          2.0222453170193082E-030
  -11.220000000000001          3.5505856965127290E-030
  -11.160000000000000          5.3204978960232040E-030
  -11.100000000000000          7.3161405661191837E-030
  -11.040000000000001          9.5078453638186795E-030
  -10.980000000000000          1.1850002735065303E-029
  -10.920000000000000          1.4279126937847933E-029
  -10.860000000000001          1.6712225923494445E-029
  -10.800000000000001          1.9045619756910203E-029
  -10.740000000000000          2.1154365475227188E-029
  -10.680000000000000          2.2892445260557224E-029
  -10.620000000000001          2.4093901012552829E-029
  -10.560000000000000          2.4575081655326049E-029
  -10.500000000000000          2.4138171762655473E-029
  -10.440000000000001          2.2576125191636234E-029
  -10.380000000000001          1.9679169410535174E-029
  -10.320000000000000          1.5242914831084998E-029
  -10.260000000000000          9.0781446935828950E-030
  -10.200000000000001          1.0222213579293318E-030
  -10.140000000000001         -9.0479490352348336E-030
  -10.080000000000000         -2.1201617197608095E-029
  -10.020000000000001         -3.5438817987876431E-029
  -9.9600000000000009         -5.1674315613933074E-029
  -9.9000000000000004         -6.9721370464943206E-029
  -9.8399999999999999         -8.9275950979019886E-029
  -9.7800000000000011         -1.0990213541252665E-028
  -9.7200000000000006         -1.3101950740962820E-028
  -9.6600000000000001         -1.5189357780228050E-028
  -9.6000000000000014         -1.7163021311147582E-028
  -9.5400000000000009         -1.8917523702346080E-028
  -9.4800000000000004         -2.0332025181233926E-028
  -9.4199999999999999         -2.1271594040292563E-028
  -9.3600000000000012         -2.1589383334213367E-028
  -9.3000000000000007         -2.1129760864977175E-028
  -9.2400000000000002         -1.9732472000605470E-028
  -9.1799999999999997         -1.7237888857769047E-028
  -9.1200000000000010         -1.3493386583921602E-028
  -9.0600000000000005         -8.3608316355998549E-029
  -9.0000000000000000         -1.7251301578328811E-029
  -8.9400000000000013          6.4962699565034387E-029
  -8.8800000000000008          1.6343073446149725E-028
  -8.8200000000000003          2.7801290638041000E-028
  -8.7599999999999998          4.0792103583211155E-028
  -8.7000000000000011          5.5160842347018505E-028
  -8.6400000000000006          7.0666497476658767E-028
  -8.5800000000000001          8.6972312267414001E-028
  -8.5200000000000014          1.0363796886578162E-027
  -8.4600000000000009          1.2011406872771448E-027
  -8.4000000000000004          1.3573956333243959E-027
  -8.3399999999999999          1.4974277292386587E-027
  -8.2800000000000011          1.6124683347972341E-027
  -8.2200000000000006          1.6928014750564165E-027
  -8.1600000000000001          1.7279251775303436E-027
  -8.1000000000000014          1.7067758140611937E-027
  -8.0400000000000009          1.6180186306466612E-027
  -7.9800000000000004          1.4504088241656382E-027
  -7.9200000000000017          1.1932231373645533E-027
  -7.8599999999999994          8.3675951357079830E-028
  -7.8000000000000007          3.7290327012149385E-028
  -7.7400000000000020         -2.0425164138862780E-028
  -7.6799999999999997         -8.9773410070774522E-028
  -7.6200000000000010         -1.7069967278495657E-027
  -7.5600000000000023         -2.6272058521739087E-027
  -7.5000000000000000         -3.6485419795990758E-027
  -7.4400000000000013         -4.7555395421312138E-027
  -7.3799999999999990         -5.9264973867667871E-027
  -7.3200000000000003         -7.1329927291385760E-027
  -7.2600000000000016         -8.3395381716395955E-027
  -7.1999999999999993         -9.5034222411742996E-027
  -7.1400000000000006         -1.0574774067469028E-026
  -7.0800000000000018         -1.1496888691976538E-026
  -7.0199999999999996         -1.2206863542619279E-026
  -6.9600000000000009         -1.2636569647779871E-026
  -6.9000000000000021         -1.2713998677933597E-026
  -6.8399999999999999         -1.2365006700493206E-026
  -6.7800000000000011         -1.1515467342033093E-026
  -6.7199999999999989         -1.0093840055479639E-026
  -6.6600000000000001         -8.0341536176307285E-027
  -6.6000000000000014         -5.2793536064632466E-027
  -6.5399999999999991         -1.7850020031927540E-027
  -6.4800000000000004          2.4767609747774678E-027
  -6.4200000000000017          7.5130599048580513E-027
  -6.3599999999999994          1.3306047517330580E-026
  -6.3000000000000007          1.9808711159491608E-026
  -6.2400000000000020          2.6940881316999775E-026
  -6.1799999999999997          3.4585596457887244E-026
  -6.1200000000000010          4.2586045481002499E-026
  -6.0600000000000023          5.0743250357075142E-026
  -6.0000000000000000          5.8814754922161156E-026
  -5.9400000000000013          6.6514505398288876E-026
  -5.8799999999999990          7.3514159856934568E-026
  -5.8200000000000003          7.9446079197374718E-026
  -5.7600000000000016          8.3908107256848346E-026
  -5.6999999999999993          8.6470456249358657E-026
  -5.6400000000000006          8.6684685906046451E-026
  -5.5800000000000018          8.4095013274301629E-026
  -5.5199999999999996          7.8251872418996931E-026
  -5.4600000000000009          6.8727750444536156E-026
  -5.4000000000000021          5.5135234409507825E-026
  -5.3399999999999999          3.7146924947303633E-026
  -5.2800000000000011          1.4517103729695483E-026
  -5.2200000000000024         -1.2895437093378234E-026
  -5.1600000000000001         -4.5103761128901399E-026
  -5.1000000000000014         -8.1969087949938248E-026
  -5.0399999999999991         -1.2317772571306901E-025
  -4.9800000000000004         -1.6821950639711264E-025
  -4.9200000000000017         -2.1636864215799694E-025
  -4.8599999999999994         -2.6666809889052046E-025
  -4.8000000000000007         -3.1791854842604387E-025
  -4.7400000000000020         -3.6867296351789556E-025
  -4.6799999999999997         -4.1723830058468500E-025
  -4.6200000000000010         -4.6168501505748192E-025
  -4.5600000000000023         -4.9986583671418254E-025
  -4.5000000000000000         -5.2944459021487702E-025
  -4.4400000000000013         -5.4793582629218787E-025
  -4.3799999999999990         -5.5275636424304703E-025
  -4.3200000000000003         -5.4128827592494242E-025
  -4.2600000000000016         -5.1095414410365409E-025
  -4.1999999999999993         -4.5930411646974912E-025
  -4.1400000000000006         -3.8411349208815631E-025
  -4.0800000000000018         -2.8349050424088223E-025
  -4.0199999999999996         -1.5599212346035690E-025
  -3.9600000000000009         -7.4568848469587399E-028
  -3.9000000000000021          1.8242617229073581E-025
  -3.8399999999999999          3.9288043614068234E-025
  -3.7800000000000011          6.2903314034154854E-025
  -3.7200000000000024          8.8824630054659501E-025
  -3.6600000000000001          1.1667282281730244E-024
  -3.6000000000000014          1.4594521465834241E-024
  -3.5399999999999991          1.7600977284364592E-024
  -3.4800000000000004          2.0610227844276548E-024
  -3.4200000000000017          2.3532691050744633E-024
  -3.3599999999999994          2.6266091494084816E-024
  -3.3000000000000007          2.8696382028128084E-024
  -3.2400000000000020          3.0699164209738436E-024
  -3.1799999999999997          3.2141651149169554E-024
  -3.1200000000000010          3.2885212211518869E-024
  -3.0600000000000023          3.2788485617101805E-024
  -3.0000000000000000          3.1711103667147315E-024
  -2.9400000000000013          2.9517967146629694E-024
  -2.8800000000000026          2.6084092094662837E-024
  -2.8200000000000003          2.1299916889739527E-024
  -2.7600000000000016          1.5077024488743764E-024
  -2.6999999999999993          7.3541846312318415E-025
  -2.6400000000000006         -1.8964528364097587E-025
  -2.5800000000000018         -1.2663107216681506E-024
  -2.5199999999999996         -2.4888284857121692E-024
  -2.4600000000000009         -3.8463048906090740E-024
  -2.4000000000000021         -5.3221839168218024E-024
  -2.3399999999999999         -6.8938111856735712E-024
  -2.2800000000000011         -8.5321042815444248E-024
  -2.2200000000000024         -1.0201353341677712E-023
  -2.1600000000000001         -1.1859179665126905E-023
  -2.1000000000000014         -1.3456678296011588E-023
  -2.0399999999999991         -1.4938764834172556E-023
  -1.9800000000000004         -1.6244759585609629E-023
  -1.9200000000000017         -1.7309210778561772E-023
  -1.8599999999999994         -1.8062987381542325E-023
  -1.8000000000000007         -1.8434637438826860E-023
  -1.7400000000000020         -1.8352032142498973E-023
  -1.6799999999999997         -1.7744273509576985E-023
  -1.6200000000000010         -1.6543860742766689E-023
  -1.5600000000000023         -1.4689102690713242E-023
  -1.5000000000000000         -1.2126726373216058E-023
  -1.4400000000000013         -8.8146599292776536E-024
  -1.3800000000000026         -4.7249242864111844E-024
  -1.3200000000000003          1.5342210014332534E-025
  -1.2600000000000016          5.8113703334331863E-024
  -1.1999999999999993          1.2217138871023504E-023
  -1.1400000000000006          1.9313571430211242E-023
  -1.0800000000000018          2.7015819201545821E-023
  -1.0199999999999996          3.5209446204895339E-023
 -0.96000000000000085          4.3749040166932853E-023
 -0.90000000000000213          5.2457470170070823E-023
 -0.83999999999999986          6.1125895022433881E-023
 -0.78000000000000114          6.9514617890172689E-023
 -0.72000000000000242          7.7354899843558445E-023
 -0.66000000000000014          8.4351841328067082E-023
 -0.60000000000000142          9.0188366294378829E-023
 -0.53999999999999915          9.4530400639893852E-023
 -0.48000000000000043          9.7033251550434589E-023
 -0.42000000000000171          9.7349208051721193E-023
 -0.35999999999999943          9.5136338481913737E-023
 -0.30000000000000071          9.0068395964777716E-023
 -0.24000000000000199          8.1845734641107941E-023
 -0.17999999999999972          7.0207162755360751E-023
 -0.12000000000000099          5.4942403641763286E-023
  -6.0000000000002274E-002     3.5905081851806605E-023
   0.0000000000000000          1.3025869877117498E-023
   5.9999999999998721E-002    -1.3674522857983743E-023
  0.11999999999999744         -4.4072796104057237E-023
  0.17999999999999972         -7.7931486655330216E-023
  0.23999999999999844         -1.1488859455029543E-022
  0.30000000000000071         -1.5444907336897317E-022
  0.35999999999999943         -1.9597852080267622E-022
  0.41999999999999815         -2.3869958526896220E-022
  0.48000000000000043         -2.8169150743628983E-022
  0.53999999999999915         -3.2389335233401619E-022
  0.59999999999999787         -3.6411126179826117E-022
  0.66000000000000014         -4.0103006678391101E-022
  0.71999999999999886         -4.3322971660259523E-022
  0.77999999999999758         -4.5920652570139520E-022
  0.83999999999999986         -4.7739960595878134E-022
  0.89999999999999858         -4.8622235522228909E-022
  0.96000000000000085         -4.8409888706924605E-022
   1.0199999999999996         -4.6950531732765177E-022
   1.0799999999999983         -4.4101522275096787E-022
   1.1400000000000006         -3.9734896969587325E-022
   1.1999999999999993         -3.3742611626193453E-022
   1.2599999999999980         -2.6041999346722999E-022
   1.3200000000000003         -1.6581316905796105E-022
   1.3799999999999990         -5.3452748641290909E-023
   1.4399999999999977          7.6395587248870643E-023
   1.5000000000000000          2.2299710902322820E-022
   1.5599999999999987          3.8510204504389278E-022
   1.6199999999999974          5.6090635798972448E-022
   1.6799999999999997          7.4802079539280880E-022
   1.7399999999999984          9.4345012228024961E-022
   1.8000000000000007          1.1435847941981519E-021
   1.8599999999999994          1.3442060683211749E-021
   1.9199999999999982          1.5405068968497592E-021
   1.9800000000000004          1.7271301747415289E-021
   2.0399999999999991          1.8982245407836317E-021
   2.0999999999999979          2.0475205155267428E-021
   2.1600000000000001          2.1684259992967324E-021
   2.2199999999999989          2.2541420119032184E-021
   2.2799999999999976          2.2977990615709776E-021
   2.3399999999999999          2.2926124137670740E-021
   2.3999999999999986          2.2320550059946974E-021
   2.4599999999999973          2.1100479569930498E-021
   2.5199999999999996          1.9211631549808433E-021
   2.5799999999999983          1.6608377472508282E-021
   2.6400000000000006          1.3255951405774412E-021
   2.6999999999999993          9.1326794203631371E-022
   2.7599999999999980          4.2321952188632341E-022
   2.8200000000000003         -1.4344363472052273E-022
   2.8799999999999990         -7.8367253118322338E-022
   2.9399999999999977         -1.4922971473618838E-021
   3.0000000000000000         -2.2618753287658782E-021
   3.0599999999999987         -3.0825757473702330E-021
   3.1199999999999974         -3.9421009302304624E-021
   3.1799999999999997         -4.8256591575025258E-021
   3.2399999999999984         -5.7159901378301686E-021
   3.3000000000000007         -6.5934511185424180E-021
   3.3599999999999994         -7.4361691996203983E-021
   3.4199999999999982         -8.2202626558642239E-021
   3.4800000000000004         -8.9201375631497909E-021
   3.5399999999999991         -9.5088593130712218E-021
   3.5999999999999979         -9.9585993594413269E-021
   3.6600000000000001         -1.0241159063255522E-020
   3.7199999999999989         -1.0328565162249880E-020
   3.7799999999999976         -1.0193732669635305E-020
   3.8399999999999999         -9.8111877786624340E-021
   3.8999999999999986         -9.1578426808918420E-021
   3.9599999999999973         -8.2138104155768235E-021
   4.0199999999999996         -6.9632432181775075E-021
   4.0799999999999983         -5.3951859196077201E-021
   4.1400000000000006         -3.5044165219390763E-021
   4.1999999999999993         -1.2922651790039440E-021
   4.2599999999999980          1.2326222135475135E-021
   4.3200000000000003          4.0535890745580284E-021
   4.3799999999999990          7.1453673497685848E-021
   4.4399999999999977          1.0473595034193716E-020
   4.5000000000000000          1.3994487560228227E-020
   4.5599999999999987          1.7654665473102887E-020
   4.6199999999999974          2.1391182110191853E-020
   4.6799999999999997          2.5131759970425446E-020
   4.7399999999999984          2.8795259453859492E-020
   4.7999999999999972          3.2292405223318248E-020
   4.8599999999999994          3.5526755386824189E-020
   4.9199999999999982          3.8395953218228828E-020
   4.9800000000000004          4.0793253200773551E-020
   5.0399999999999991          4.2609308222157098E-020
   5.0999999999999979          4.3734228734372334E-020
   5.1600000000000001          4.4059870451065789E-020
   5.2199999999999989          4.3482379172158665E-020
   5.2799999999999976          4.1904895013226554E-020
   5.3399999999999999          3.9240447679118017E-020
   5.3999999999999986          3.5414948008786593E-020
   5.4599999999999973          3.0370247343810076E-020
   5.5199999999999996          2.4067210125553133E-020
   5.5799999999999983          1.6488721341573644E-020
   5.6400000000000006          7.6425693183890263E-021
   5.6999999999999993         -2.4358707431090468E-021
   5.7599999999999980         -1.3681255212047698E-020
   5.8200000000000003         -2.5996222200583875E-020
   5.8799999999999990         -3.9249806493177324E-020
   5.9399999999999977         -5.3276382622655185E-020
   6.0000000000000000         -6.7875209668535570E-020
   6.0599999999999987         -8.2810632107836589E-020
   6.1199999999999974         -9.7813081663857000E-020
   6.1799999999999997         -1.1258083855056683E-019
   6.2399999999999984         -1.2678267684086614E-019
   6.2999999999999972         -1.4006139450395708E-019
   6.3599999999999994         -1.5203824625594755E-019
   6.4199999999999982         -1.6231834043101704E-019
   6.4800000000000004         -1.7049690855829088E-019
   6.5399999999999991         -1.7616645728687443E-019
   6.5999999999999979         -1.7892476426960084E-019
   6.6600000000000001         -1.7838357586105674E-019
   6.7199999999999989         -1.7417800322606584E-019
   6.7799999999999976         -1.6597644838113765E-019
   6.8399999999999999         -1.5349082773819861E-019
   6.8999999999999986         -1.3648711659540305E-019
   6.9599999999999973         -1.1479585463649137E-019
   7.0199999999999996         -8.8322444047798840E-020
   7.0799999999999983         -5.7057116924062295E-020
   7.1400000000000006         -2.1084201630557000E-020
   7.1999999999999993          1.9409517994059818E-020
   7.2599999999999980          6.4127562862219695E-020
   7.3200000000000003          1.1265798718174973E-019
   7.3799999999999990          1.6446921082300555E-019
   7.4399999999999977          2.1890784472311695E-019
   7.5000000000000000          2.7519862756388999E-019
   7.5599999999999987          3.3244680377546593E-019
   7.6199999999999974          3.8964290112799069E-019
   7.6799999999999997          4.4567053556983896E-019
   7.7399999999999984          4.9931671324851042E-019
   7.7999999999999972          5.4928540807684016E-019
   7.8599999999999994          5.9421379022164608E-019
   7.9199999999999982          6.3269160761618246E-019
   7.9800000000000004          6.6328333873855672E-019
   8.0399999999999991          6.8455299882736494E-019
   8.1000000000000014          6.9509149162872457E-019
   8.1599999999999966          6.9354633998966113E-019
   8.2199999999999989          6.7865296161266626E-019
   8.2800000000000011          6.4926763038960786E-019
   8.3399999999999963          6.0440130070358652E-019
   8.3999999999999986          5.4325388511133406E-019
   8.4600000000000009          4.6524847648546952E-019
   8.5199999999999960          3.7006445678135345E-019
   8.5799999999999983          2.5766933798572642E-019
   8.6400000000000006          1.2834823769040283E-019