  -24.000000000000000          0.0000000000000000     
  -23.940000000000001          0.0000000000000000     
  -23.879999999999999          0.0000000000000000     
  -23.820000000000000          0.0000000000000000     
  -23.760000000000002          0.0000000000000000     
  -23.699999999999999          0.0000000000000000     
  -23.640000000000001          0.0000000000000000     
  -23.579999999999998          0.0000000000000000     
  -23.520000000000000          0.0000000000000000     
  -23.460000000000001          0.0000000000000000     
  -23.399999999999999          0.0000000000000000     
  -23.340000000000000          0.0000000000000000     
  -23.280000000000001          0.0000000000000000     
  -23.219999999999999          0.0000000000000000     
  -23.160000000000000          0.0000000000000000     
  -23.100000000000001          0.0000000000000000     
  -23.039999999999999          0.0000000000000000     
  -22.980000000000000          0.0000000000000000     
  -22.920000000000002          0.0000000000000000     
  -22.859999999999999          0.0000000000000000     
  -22.800000000000001          0.0000000000000000     
  -22.739999999999998          0.0000000000000000     
  -22.680000000000000          0.0000000000000000     
  -22.620000000000001          0.0000000000000000     
  -22.559999999999999          0.0000000000000000     
  -22.500000000000000          0.0000000000000000     
  -22.440000000000001          0.0000000000000000     
  -22.379999999999999          0.0000000000000000     
  -22.320000000000000          0.0000000000000000     
  -22.260000000000002          0.0000000000000000     
  -22.199999999999999          0.0000000000000000     
  -22.140000000000001          0.0000000000000000     
  -22.079999999999998          0.0000000000000000     
  -22.020000000000000          0.0000000000000000     
  -21.960000000000001          0.0000000000000000     
  -21.899999999999999          0.0000000000000000     
  -21.840000000000000          0.0000000000000000     
  -21.780000000000001          0.0000000000000000     
  -21.719999999999999          0.0000000000000000     
  -21.660000000000000          0.0000000000000000     
  -21.600000000000001         -3.0666982200000270E-041
  -21.539999999999999         -9.7792246953683652E-041
  -21.480000000000000         -1.9820930650364749E-040
  -21.420000000000002         -3.2620836706178460E-040
  -21.359999999999999         -6.2712503151568547E-040
  -21.300000000000001         -8.3945670394472260E-040
  -21.240000000000002         -1.0742347274422711E-039
  -21.180000000000000         -1.3568858931548888E-039
  -21.120000000000001         -1.7058936630903224E-039
  -21.059999999999999         -1.6820091176379979E-039
  -21.000000000000000         -1.1387785295131837E-039
  -20.940000000000001          7.5832165236851373E-041
  -20.879999999999999          1.5295605989438850E-039
  -20.820000000000000          2.9282389479206436E-039
  -20.760000000000002          4.2523740244236957E-039
  -20.699999999999999          1.0315792944898106E-038
  -20.640000000000001          2.0325374264993730E-038
  -20.579999999999998          3.0156588439560662E-038
  -20.520000000000000          4.2028587108945303E-038
  -20.460000000000001          5.5622121233058169E-038
  -20.399999999999999          7.3229825677286942E-038
  -20.340000000000000          9.6864560232187148E-038
  -20.280000000000001          1.2576521317132331E-037
  -20.219999999999999          1.6127242901729755E-037
  -20.160000000000000          2.0833183627075678E-037
  -20.100000000000001          2.6988634784672151E-037
  -20.039999999999999          3.4847992097796650E-037
  -19.980000000000000          4.5455901795271443E-037
  -19.920000000000002          5.9558143600112290E-037
  -19.859999999999999          7.8009093545823893E-037
  -19.800000000000001          1.0215619140909011E-036
  -19.740000000000002          1.3248379284643272E-036
  -19.680000000000000          1.6934309549551025E-036
  -19.620000000000001          2.1205625527659520E-036
  -19.560000000000002          2.6029526268622025E-036
  -19.500000000000000          3.1528881746507444E-036
  -19.440000000000001          3.7621402668303858E-036
  -19.379999999999999          4.4132060467569648E-036
  -19.320000000000000          5.0837248266559567E-036
  -19.259999999999998          5.7321191970662965E-036
  -19.199999999999999          6.2864539142041795E-036
  -19.140000000000001          6.6581758216757755E-036
  -19.079999999999998          6.7357768170957501E-036
  -19.020000000000000          6.3550013602421047E-036
  -18.960000000000001          5.3218442135659618E-036
  -18.899999999999999          3.3555979301548900E-036
  -18.840000000000000          2.2552438469912019E-037
  -18.780000000000001         -4.3668155342757707E-036
  -18.719999999999999         -1.0784630579184452E-035
  -18.660000000000000         -1.9422430127885694E-035
  -18.600000000000001         -3.0684505847182405E-035
  -18.539999999999999         -4.4979503320296900E-035
  -18.480000000000000         -6.2654693811485150E-035
  -18.420000000000002         -8.3981330015865209E-035
  -18.359999999999999         -1.0909106951362540E-034
  -18.300000000000001         -1.3789054892842227E-034
  -18.240000000000002         -1.6997896003618351E-034
  -18.180000000000000         -2.0456096555203871E-034
  -18.120000000000001         -2.4030664555773631E-034
  -18.060000000000002         -2.7521346503163680E-034
  -18.000000000000000         -3.0650673726438967E-034
  -17.940000000000001         -3.3048677346940578E-034
  -17.879999999999999         -3.4237220973719651E-034
  -17.820000000000000         -3.3623584173618630E-034
  -17.759999999999998         -3.0485857445061831E-034
  -17.699999999999999         -2.3969071606791375E-034
  -17.640000000000001         -1.3091098211743240E-034
  -17.579999999999998          3.2468214683173272E-035
  -17.520000000000000          2.6235685974242975E-034
  -17.460000000000001          5.7122768460453927E-034
  -17.399999999999999          9.7155078813125032E-034
  -17.340000000000000          1.4750333983768594E-033
  -17.280000000000001          2.0916405108319855E-033
  -17.219999999999999          2.8283415611289688E-033
  -17.160000000000000          3.6875720590155033E-033
  -17.100000000000001          4.6654438670986046E-033
  -17.039999999999999          5.7496399789365350E-033
  -16.980000000000000          6.9170653280549168E-033
  -16.920000000000002          8.1312649430901395E-033
  -16.859999999999999          9.3396952224317472E-033
  -16.800000000000001          1.0470936447563949E-032
  -16.740000000000002          1.1431968419934944E-032
  -16.680000000000000          1.2105710660219852E-032
  -16.620000000000001          1.2348900741897228E-032
  -16.560000000000002          1.1990829381474079E-032
  -16.500000000000000          1.0832950589951079E-032
  -16.440000000000001          8.6498292474620815E-033
  -16.379999999999999          5.1917801770362415E-033
  -16.320000000000000          1.8958853897757803E-034
  -16.260000000000002         -6.6382947094346217E-033
  -16.199999999999999         -1.5575652078312391E-032
  -16.140000000000001         -2.6895077039293829E-032
  -16.079999999999998         -4.0840904977984071E-032
  -16.020000000000000         -5.7608200910583726E-032
  -15.960000000000001         -7.7317633571667813E-032
  -15.900000000000000         -9.9986097271112443E-032
  -15.840000000000000         -1.2549338515167931E-031
  -15.780000000000001         -1.5354503641775325E-031
  -15.720000000000001         -1.8363226392934810E-031
  -15.660000000000000         -2.1498959575119983E-031
  -15.600000000000000         -2.4655164839847574E-031
  -15.540000000000001         -2.7691077002515489E-031
  -15.480000000000000         -3.0427764560342835E-031
  -15.420000000000000         -3.2644716755682159E-031
  -15.359999999999999         -3.4077294635175059E-031
  -15.300000000000001         -3.4415356354540085E-031
  -15.240000000000000         -3.3303476577343902E-031
  -15.180000000000000         -3.0343136551720112E-031
  -15.120000000000001         -2.5097376530124643E-031
  -15.060000000000000         -1.7098369174630394E-031
  -15.000000000000000         -5.8583437232508023E-032
  -14.940000000000000          9.1156277267599411E-032
  -14.880000000000001          2.8302634456056188E-031
  -14.820000000000000          5.2144318541722034E-031
  -14.760000000000000          8.1016424574587264E-031
  -14.700000000000001          1.1519540682926712E-030
  -14.640000000000001          1.5482008768867594E-030
  -14.580000000000000          1.9984872455240903E-030
  -14.520000000000000          2.5001160949152278E-030
  -14.460000000000001          3.0476052451589167E-030
  -14.400000000000000          3.6321568220701302E-030
  -14.340000000000000          4.2411162013751052E-030
  -14.280000000000001          4.8574418449506548E-030
  -14.220000000000001          5.4592029697078815E-030
  -14.160000000000000          6.0191339915320829E-030
  -14.100000000000000          6.5042792883557900E-030
  -14.040000000000001          6.8757538903314784E-030
  -13.980000000000000          7.0886668762892850E-030
  -13.920000000000000          7.0922426660466537E-030
  -13.860000000000001          6.8301861034608425E-030
  -13.800000000000001          6.2413374264078909E-030
  -13.740000000000000          5.2606549553271085E-030
  -13.680000000000000          3.8205800797163221E-030
  -13.620000000000001          1.8528155622672659E-030
  -13.560000000000000         -7.0944578858775393E-031
  -13.500000000000000         -3.9288055324397252E-030
  -13.440000000000001         -7.8604573672849187E-030
  -13.380000000000001         -1.2548476094185084E-029
  -13.320000000000000         -1.8021615504304730E-029
  -13.260000000000000         -2.4288651397656646E-029
  -13.200000000000001         -3.1333310916802421E-029
  -13.140000000000001         -3.9108874095835957E-029
  -13.080000000000000         -4.7532536747948644E-029
  -13.020000000000000         -5.6479697636155572E-029
  -12.960000000000001         -6.5778273063796835E-029
  -12.900000000000000         -7.5203342262141090E-029
  -12.840000000000000         -8.4472245274345902E-029
  -12.780000000000001         -9.3240446069669002E-029
  -12.720000000000001         -1.0109851935157812E-028
  -12.660000000000000         -1.0757042104579151E-028
  -12.600000000000000         -1.1211361310376849E-028
  -12.540000000000001         -1.1412122294492610E-028
  -12.480000000000000         -1.1292670659137469E-028
  -12.420000000000000         -1.0781147309129442E-028
  -12.360000000000001         -9.8015640356970085E-029
  -12.300000000000001         -8.2752505106549920E-029
  -12.240000000000000         -6.1226930404903989E-029
  -12.180000000000000         -3.2657919620000032E-029
  -12.120000000000001          3.6943744650267641E-030
  -12.060000000000000          4.8497162035473297E-029
  -12.000000000000000          1.0230901373779007E-028
  -11.940000000000001          1.6553944406617853E-028
  -11.880000000000001          2.3840444335157899E-028
  -11.820000000000000          3.2087844770369101E-028
  -11.760000000000000          4.1264320881779181E-028
  -11.700000000000001          5.1303485349969801E-028
  -11.640000000000001          6.2098973004293856E-028
  -11.580000000000000          7.3499087038838211E-028
  -11.520000000000000          8.5301625169250660E-028
  -11.460000000000001          9.7249145866694663E-028
  -11.400000000000000          1.0902478095056567E-027
  -11.340000000000000          1.2024891207636321E-027
  -11.280000000000001          1.3047701256346454E-027
  -11.220000000000001          1.3919874314912326E-027
  -11.160000000000000          1.4583887336285949E-027
  -11.100000000000000          1.4976007813943498E-027
  -11.040000000000001          1.5026811327969399E-027
  -10.980000000000000          1.4661957651910193E-027
  -10.920000000000000          1.3803256967365461E-027
  -10.860000000000001          1.2370052272893876E-027
  -10.800000000000001          1.0280942072422104E-027
  -10.740000000000000          7.4558760071745392E-028
  -10.680000000000000          3.8186089400475127E-028
  -10.620000000000001         -7.0045623684941229E-029
  -10.560000000000000         -6.1610517680447300E-028
  -10.500000000000000         -1.2609464590995037E-027
  -10.440000000000001         -2.0074622497190735E-027
  -10.380000000000001         -2.8563884396125794E-027
  -10.320000000000000         -3.8058588790979222E-027
  -10.260000000000000         -4.8509443700924201E-027
  -10.200000000000001         -5.9831813105705298E-027
  -10.140000000000001         -7.1901084226106232E-027
  -10.080000000000000         -8.4548140058531976E-027
  -10.020000000000001         -9.7555163612507960E-027
  -9.9600000000000009         -1.1065192258125534E-026
  -9.9000000000000004         -1.2351268890520343E-026
  -9.8399999999999999         -1.3575405633206771E-026
  -9.7800000000000011         -1.4693377483278489E-026
  -9.7200000000000006         -1.5655093037239147E-026
  -9.6600000000000001         -1.6404764339358579E-026
  -9.6000000000000014         -1.6881256377573016E-026
  -9.5400000000000009         -1.7018633265618538E-026
  -9.4800000000000004         -1.6746933923227622E-026
  -9.4199999999999999         -1.5993189830920094E-026
  -9.3600000000000012         -1.4682708046475320E-026
  -9.3000000000000007         -1.2740625804483904E-026
  -9.2400000000000002         -1.0093771101251085E-026
  -9.1799999999999997         -6.6728052115720317E-027
  -9.1200000000000010         -2.4146707982107122E-027
  -9.0600000000000005          2.7346777462069947E-027
  -9.0000000000000000          8.8172693386562147E-027
  -8.9400000000000013          1.5859868448152586E-026
  -8.8800000000000008          2.3870514283874174E-026
  -8.8200000000000003          3.2834903089128923E-026
  -8.7599999999999998          4.2712669681108754E-026
  -8.7000000000000011          5.3433639763759390E-026
  -8.6400000000000006          6.4894137625573917E-026
  -8.5800000000000001          7.6953475949630598E-026
  -8.5200000000000014          8.9430695466530675E-026
  -8.4600000000000009          1.0210169574651177E-025
  -8.4000000000000004          1.1469696087255343E-025
  -8.3399999999999999          1.2689989724975492E-025
  -8.2800000000000011          1.3834605140016999E-025
  -8.2200000000000006          1.4862336744240648E-025
  -8.1600000000000001          1.5727355164384680E-025
  -8.1000000000000014          1.6379483152301005E-025
  -8.0400000000000009          1.6764619011812656E-025
  -7.9800000000000004          1.6825324904741816E-025
  -7.9200000000000017          1.6501601627093267E-025
  -7.8599999999999994          1.5731844798458206E-025
  -7.8000000000000007          1.4454011829804932E-025
  -7.7400000000000020          1.2606991627364487E-025
  -7.6799999999999997          1.0132186985896599E-025
  -7.6200000000000010          6.9753056601832334E-026
  -7.5600000000000023          3.0883530039033237E-026
  -7.5000000000000000         -1.5681893133387755E-026
  -7.4400000000000013         -7.0230077232579514E-026
  -7.3799999999999990         -1.3291464581607493E-025
  -7.3200000000000003         -2.0372996099134370E-025
  -7.2600000000000016         -2.8248436530021719E-025
  -7.1999999999999993         -3.6877330539739080E-025
  -7.1400000000000006         -4.6195285669661518E-025
  -7.0800000000000018         -5.6111424582717696E-025
  -7.0199999999999996         -6.6506024005208499E-025
  -6.9600000000000009         -7.7228422738954261E-025
  -6.9000000000000021         -8.8095274232627786E-025
  -6.8399999999999999         -9.8889248923522181E-025
  -6.7800000000000011         -1.0935827224316073E-024
  -6.7199999999999989         -1.1921546077336008E-024
  -6.6600000000000001         -1.2813974796990032E-024
  -6.6000000000000014         -1.3577741907640290E-024
  -6.5399999999999991         -1.4174457435370904E-024
  -6.4800000000000004         -1.4563069492363576E-024
  -6.4200000000000017         -1.4700329038094113E-024
  -6.3599999999999994         -1.4541381640765887E-024
  -6.3000000000000007         -1.4040481476187918E-024
  -6.2400000000000020         -1.3151847458593646E-024
  -6.1799999999999997         -1.1830635006041804E-024
  -6.1200000000000010         -1.0034059836361134E-024
  -6.0600000000000023         -7.7226403876816994E-025
  -6.0000000000000000         -4.8615621040389508E-025
  -5.9400000000000013         -1.4221536402794331E-025
  -5.8799999999999990          2.6165350905157813E-025
  -5.8200000000000003          7.2660898452341432E-025
  -5.7600000000000016          1.2527021474854914E-024
  -5.6999999999999993          1.8387037819078714E-024
  -5.6400000000000006          2.4819321317379700E-024
  -5.5800000000000018          3.1780844383850534E-024
  -5.5199999999999996          3.9210782598152536E-024
  -5.4600000000000009          4.7029045127722350E-024
  -5.4000000000000021          5.5134998583284864E-024
  -5.3399999999999999          6.3406411460115206E-024
  -5.2800000000000011          7.1698711193719950E-024
  -5.2200000000000024          7.9844547573006340E-024
  -5.1600000000000001          8.7653821185340191E-024
  -5.1000000000000014          9.4914145836319042E-024
  -5.0399999999999991          1.0139179302640212E-023
  -4.9800000000000004          1.0683331521377266E-023
  -4.9200000000000017          1.1096768753143828E-023
  -4.8599999999999994          1.1350922994163287E-023
  -4.8000000000000007          1.1416115538604634E-023
  -4.7400000000000020          1.1261991327142918E-023
  -4.6799999999999997          1.0858028066108563E-023
  -4.6200000000000010          1.0174121874275888E-023
  -4.5600000000000023          9.1812512870946582E-024
  -4.5000000000000000          7.8522080560774462E-024
  -4.4400000000000013          6.1624051654859381E-024
  -4.3799999999999990          4.0907459889768713E-024
  -4.3200000000000003          1.6205411680088884E-024
  -4.2600000000000016         -1.2595195958022429E-024
  -4.1999999999999993         -4.5543753740510897E-024
  -4.1400000000000006         -8.2615715588779349E-024
  -4.0800000000000018         -1.2370258642877574E-023
  -4.0199999999999996         -1.6860190427235395E-023
  -3.9600000000000009         -2.1700782723889267E-023
  -3.9000000000000021         -2.6850231851457259E-023
  -3.8399999999999999         -3.2254723319360436E-023
  -3.7800000000000011         -3.7847773010963519E-023
  -3.7200000000000024         -4.3549707135858529E-023
  -3.6600000000000001         -4.9267335046981542E-023
  -3.6000000000000014         -5.4893817821348838E-023
  -3.5399999999999991         -6.0308800620765632E-023
  -3.4800000000000004         -6.5378795167022510E-023
  -3.4200000000000017         -6.9957892422430935E-023
  -3.3599999999999994         -7.3888765619896782E-023
  -3.3000000000000007         -7.7004068412129718E-023
  -3.2400000000000020         -7.9128180667260868E-023
  -3.1799999999999997         -8.0079361625255914E-023
  -3.1200000000000010         -7.9672297669672946E-023
  -3.0600000000000023         -7.7721064466723622E-023
  -3.0000000000000000         -7.4042497993119678E-023
  -2.9400000000000013         -6.8459987427777942E-023
  -2.8800000000000026         -6.0807583912001461E-023
  -2.8200000000000003         -5.0934549659650639E-023
  -2.7600000000000016         -3.8710205654898810E-023
  -2.6999999999999993         -2.4028996841724806E-023
  -2.6400000000000006         -6.8158610265422641E-024
  -2.5800000000000018          1.2968326753371174E-023
  -2.5199999999999996          3.5321189028889985E-023
  -2.4600000000000009          6.0193355775084306E-023
  -2.4000000000000021          8.7483048037126744E-023
  -2.3399999999999999          1.1703094968874796E-022
  -2.2800000000000011          1.4861542473344903E-022
  -2.2200000000000024          1.8194820646834104E-022
  -2.1600000000000001          2.1667079279073971E-022
  -2.1000000000000014          2.5235156277188569E-022
  -2.0399999999999991          2.8848385035811761E-022
  -1.9800000000000004          3.2448511638110683E-022
  -1.9200000000000017          3.5969737156067304E-022
  -1.8599999999999994          3.9338890940256325E-022
  -1.8000000000000007          4.2475777971821409E-022
  -1.7400000000000020          4.5293664154826772E-022
  -1.6799999999999997          4.7699964530610889E-022
  -1.6200000000000010          4.9597112519440035E-022
  -1.5600000000000023          5.0883616778221579E-022
  -1.5000000000000000          5.1455352984915336E-022
  -1.4400000000000013          5.1207023836303752E-022
  -1.3800000000000026          5.0033839224211538E-022
  -1.3200000000000003          4.7833438486790532E-022
  -1.2600000000000016          4.4507934129033892E-022
  -1.1999999999999993          3.9966201343582244E-022
  -1.1400000000000006          3.4126306880843513E-022
  -1.0800000000000018          2.6918097352434633E-022
  -1.0199999999999996          1.8285885203334069E-022
 -0.96000000000000085          8.1912327292347765E-023
 -0.90000000000000213         -3.3842029382655578E-023
 -0.83999999999999986         -1.6435822760537273E-022
 -0.78000000000000114         -3.0933310345230017E-022
 -0.72000000000000242         -4.6817898854680457E-022
 -0.66000000000000014         -6.3999834321750650E-022
 -0.60000000000000142         -8.2356020505476199E-022
 -0.53999999999999915         -1.0172796197283376E-021
 -0.48000000000000043         -1.2192003373649727E-021
 -0.42000000000000171         -1.4269818669270751E-021
 -0.35999999999999943         -1.6378911878298999E-021
 -0.30000000000000071         -1.8488007858883275E-021
 -0.24000000000000199         -2.0561917229741542E-021
 -0.17999999999999972         -2.2561645124643618E-021
 -0.12000000000000099         -2.4444580196491533E-021
  -6.0000000000002274E-002    -2.6164753612644751E-021
   0.0000000000000000         -2.7673200954859193E-021
   5.9999999999998721E-002    -2.8918402817091158E-021
  0.11999999999999744         -2.9846830066386918E-021
  0.17999999999999972         -3.0403574952812235E-021
  0.23999999999999844         -3.0533097114445948E-021
  0.30000000000000071         -3.0180058029359932E-021
  0.35999999999999943         -2.9290241041757562E-021
  0.41999999999999815         -2.7811584737270419E-021
  0.48000000000000043         -2.5695282978159179E-021
  0.53999999999999915         -2.2896963440400847E-021
  0.59999999999999787         -1.9377943292441016E-021
  0.66000000000000014         -1.5106521756457039E-021
  0.71999999999999886         -1.0059325148559966E-021
  0.77999999999999758         -4.2226616540674862E-022
  0.83999999999999986          2.4061133659846483E-022
  0.89999999999999858          9.8172661186469948E-022
  0.96000000000000085          1.7987374322110267E-021
   1.0199999999999996          2.6878122089456008E-021
   1.0799999999999983          3.6435165468648439E-021
   1.1400000000000006          4.6587127844116031E-021
   1.1999999999999993          5.7244767614003325E-021
   1.2599999999999980          6.8300329647290574E-021
   1.3200000000000003          7.9627095527561070E-021
   1.3799999999999990          9.1079220229240007E-021
   1.4399999999999977          1.0249181607368271E-020
   1.5000000000000000          1.1368137255908244E-020
   1.5599999999999987          1.2444650530815521E-020
   1.6199999999999974          1.3456906694305178E-020
   1.6799999999999997          1.4381565191636414E-020
   1.7399999999999984          1.5193948808426555E-020
   1.8000000000000007          1.5868278680338059E-020
   1.8599999999999994          1.6377945872535517E-020
   1.9199999999999982          1.6695834634238827E-020
   1.9800000000000004          1.6794683663281120E-020
   2.0399999999999991          1.6647482731154123E-020
   2.0999999999999979          1.6227927269053110E-020
   2.1600000000000001          1.5510894657198896E-020
   2.2199999999999989          1.4472956792399021E-020
   2.2799999999999976          1.3092935492714210E-020
   2.3399999999999999          1.1352469693077384E-020
   2.3999999999999986          9.2366018425064472E-021
   2.4599999999999973          6.7343890081697739E-021
   2.5199999999999996          3.8395020671336116E-021
   2.5799999999999983          5.5083262458772073E-022
   2.6400000000000006         -3.1269227352257238E-021
   2.6999999999999993         -7.1826982184947061E-021
   2.7599999999999980         -1.1598528278095888E-020
   2.8200000000000003         -1.6349075598494736E-020
   2.8799999999999990         -2.1401201666293441E-020
   2.9399999999999977         -2.6713622002099303E-020
   3.0000000000000000         -3.2236645552513288E-020
   3.0599999999999987         -3.7911999794219048E-020
   3.1199999999999974         -4.3672783083895909E-020
   3.1799999999999997         -4.9443524083722026E-020
   3.2399999999999984         -5.5140383711740261E-020
   3.3000000000000007         -6.0671485238759838E-020
   3.3599999999999994         -6.5937431451981834E-020
   3.4199999999999982         -7.0831954775064570E-020
   3.4800000000000004         -7.5242729472748623E-020
   3.5399999999999991         -7.9052394871139710E-020
   3.5999999999999979         -8.2139720806827766E-020
   3.6600000000000001         -8.4380971760940984E-020
   3.7199999999999989         -8.5651423548974415E-020
   3.7799999999999976         -8.5827088976031730E-020
   3.8399999999999999         -8.4786563288757878E-020
   3.8999999999999986         -8.2413047832307530E-020
   3.9599999999999973         -7.8596527881312077E-020
   4.0199999999999996         -7.3236014607398973E-020
   4.0799999999999983         -6.6241973438010781E-020
   4.1400000000000006         -5.7538744783700525E-020
   4.1999999999999993         -4.7067071631148687E-020
   4.2599999999999980         -3.4786625978308127E-020
   4.3200000000000003         -2.0678511935317823E-020
   4.3799999999999990         -4.7477385473221715E-021
   4.4399999999999977          1.2974430971674387E-020
   4.5000000000000000          3.2428236630052778E-020
   4.5599999999999987          5.3523352273405767E-020
   4.6199999999999974          7.6137074197844256E-020
   4.6799999999999997          1.0011278479697889E-019
   4.7399999999999984          1.2525870130480901E-019
   4.7999999999999972          1.5134699961255375E-019
   4.8599999999999994          1.7811342048138213E-019
   4.9199999999999982          2.0525723153989241E-019
   4.9800000000000004          2.3244178862123718E-019
   5.0399999999999991          2.5929563243573949E-019
   5.0999999999999979          2.8541411204269764E-019
   5.1600000000000001          3.1036170580391197E-019
   5.2199999999999989          3.3367494059840264E-019
   5.2799999999999976          3.5486598964930741E-019
   5.3399999999999999          3.7342696494166035E-019
   5.3999999999999986          3.8883493250081385E-019
   5.4599999999999973          4.0055750253607178E-019
   5.5199999999999996          4.0805918791719101E-019
   5.5799999999999983          4.1080841605429945E-019
   5.6400000000000006          4.0828506820159648E-019
   5.6999999999999993          3.9998867645541276E-019
   5.7599999999999980          3.8544704823555651E-019
   5.8200000000000003          3.6422549901592465E-019
   5.8799999999999990          3.3593620150903620E-019
   5.9399999999999977          3.0024800077530887E-019
   6.0000000000000000          2.5689625687299441E-019
   6.0599999999999987          2.0569280150307162E-019
   6.1199999999999974          1.4653579276786356E-019
   6.1799999999999997          7.9419304767662958E-020
   6.2399999999999984          4.4425543230877925E-021
   6.2999999999999972         -7.8181299054052043E-020
   6.3599999999999994         -1.6811734721590170E-019
   6.4199999999999982         -2.6490165896279856E-019
   6.4800000000000004         -3.6793523164163928E-019
   6.5399999999999991         -4.7647923421097195E-019
   6.5999999999999979         -5.8965143555092996E-019
   6.6600000000000001         -7.0642435968870286E-019
   6.7199999999999989         -8.2562516139301330E-019
   6.7799999999999976         -9.4593730664324617E-019
   6.8399999999999999         -1.0659043187958738E-018
   6.8999999999999986         -1.1839357747649219E-018
   6.9599999999999973         -1.2983155448927096E-018
   7.0199999999999996         -1.4072122579905305E-018
   7.0799999999999983         -1.5086925208868380E-018
   7.1400000000000006         -1.6007363498806489E-018
   7.1999999999999993         -1.6812553308942472E-018
   7.2599999999999980         -1.7481130220238153E-018
   7.3200000000000003         -1.7991482480656652E-018
   7.3799999999999990         -1.8322004462863677E-018
   7.4399999999999977         -1.8451369852996525E-018
   7.5000000000000000         -1.8358834337716849E-018
   7.5599999999999987         -1.8024551256984362E-018
   7.6199999999999974         -1.7429902618888407E-018
   7.6799999999999997         -1.6557846395986966E-018
   7.7399999999999984         -1.5393279712746483E-018
   7.7999999999999972         -1.3923396601155231E-018
   7.8599999999999994         -1.2138061920272150E-018
   7.9199999999999982         -1.0030171812496767E-018
   7.9800000000000004         -7.5960169447830106E-019
   8.0399999999999991         -4.8356333402410299E-019
   8.1000000000000014         -1.7531277053110262E-019
   8.1599999999999966          1.6430033164810131E-019
   8.2199999999999989          5.3396009041217003E-019
   8.2800000000000011          9.3185873354624463E-019
   8.3399999999999963          1.3556762068050141E-018
   8.3999999999999986          1.8025643348146526E-018
   8.4600000000000009          2.2691343915636544E-018
   8.5199999999999960          2.7514528804204532E-018
   8.5799999999999983          3.2450420967576854E-018
   8.6400000000000006          3.7448877129242202E-018