  -24.000000000000000          0.0000000000000000     
  -23.940000000000001          0.0000000000000000     
  -23.879999999999999          0.0000000000000000     
  -23.820000000000000          0.0000000000000000     
  -23.760000000000002          0.0000000000000000     
  -23.699999999999999          0.0000000000000000     
  -23.640000000000001          0.0000000000000000     
  -23.579999999999998          0.0000000000000000     
  -23.520000000000000          0.0000000000000000     
  -23.460000000000001          0.0000000000000000     
  -23.399999999999999          0.0000000000000000     
  -23.340000000000000          0.0000000000000000     
  -23.280000000000001          0.0000000000000000     
  -23.219999999999999          0.0000000000000000     
  -23.160000000000000          0.0000000000000000     
  -23.100000000000001          0.0000000000000000     
  -23.039999999999999          0.0000000000000000     
  -22.980000000000000          0.0000000000000000     
  -22.920000000000002          0.0000000000000000     
  -22.859999999999999          0.0000000000000000     
  -22.800000000000001          0.0000000000000000     
  -22.739999999999998          0.0000000000000000     
  -22.680000000000000          0.0000000000000000     
  -22.620000000000001          0.0000000000000000     
  -22.559999999999999          0.0000000000000000     
  -22.500000000000000          0.0000000000000000     
  -22.440000000000001          0.0000000000000000     
  -22.379999999999999          0.0000000000000000     
  -22.320000000000000          0.0000000000000000     
  -22.260000000000002          0.0000000000000000     
  -22.199999999999999          0.0000000000000000     
  -22.140000000000001          0.0000000000000000     
  -22.079999999999998          0.0000000000000000     
  -22.020000000000000          0.0000000000000000     
  -21.960000000000001          0.0000000000000000     
  -21.899999999999999          0.0000000000000000     
  -21.840000000000000          0.0000000000000000     
  -21.780000000000001          0.0000000000000000     
  -21.719999999999999          0.0000000000000000     
  -21.660000000000000          0.0000000000000000     
  -21.600000000000001          0.0000000000000000     
  -21.539999999999999          0.0000000000000000     
  -21.480000000000000          0.0000000000000000     
  -21.420000000000002          0.0000000000000000     
  -21.359999999999999          0.0000000000000000     
  -21.300000000000001          0.0000000000000000     
  -21.240000000000002          0.0000000000000000     
  -21.180000000000000          0.0000000000000000     
  -21.120000000000001          0.0000000000000000     
  -21.059999999999999          0.0000000000000000     
  -21.000000000000000          0.0000000000000000     
  -20.940000000000001          0.0000000000000000     
  -20.879999999999999          0.0000000000000000     
  -20.820000000000000          0.0000000000000000     
  -20.760000000000002          0.0000000000000000     
  -20.699999999999999          0.0000000000000000     
  -20.640000000000001          0.0000000000000000     
  -20.579999999999998          0.0000000000000000     
  -20.520000000000000          0.0000000000000000     
  -20.460000000000001          0.0000000000000000     
  -20.399999999999999          0.0000000000000000     
  -20.340000000000000          0.0000000000000000     
  -20.280000000000001          0.0000000000000000     
  -20.219999999999999          0.0000000000000000     
  -20.160000000000000          0.0000000000000000     
  -20.100000000000001          0.0000000000000000     
  -20.039999999999999          0.0000000000000000     
  -19.980000000000000          0.0000000000000000     
  -19.920000000000002          0.0000000000000000     
  -19.859999999999999          0.0000000000000000     
  -19.800000000000001          0.0000000000000000     
  -19.740000000000002          0.0000000000000000     
  -19.680000000000000          0.0000000000000000     
  -19.620000000000001          0.0000000000000000     
  -19.560000000000002          0.0000000000000000     
  -19.500000000000000          0.0000000000000000     
  -19.440000000000001          0.0000000000000000     
  -19.379999999999999          0.0000000000000000     
  -19.320000000000000          0.0000000000000000     
  -19.259999999999998          0.0000000000000000     
  -19.199999999999999          0.0000000000000000     
  -19.140000000000001          0.0000000000000000     
  -19.079999999999998          0.0000000000000000     
  -19.020000000000000          0.0000000000000000     
  -18.960000000000001          0.0000000000000000     
  -18.899999999999999          0.0000000000000000     
  -18.840000000000000          0.0000000000000000     
  -18.780000000000001          0.0000000000000000     
  -18.719999999999999          0.0000000000000000     
  -18.660000000000000          0.0000000000000000     
  -18.600000000000001          0.0000000000000000     
  -18.539999999999999          0.0000000000000000     
  -18.480000000000000          0.0000000000000000     
  -18.420000000000002          0.0000000000000000     
  -18.359999999999999          0.0000000000000000     
  -18.300000000000001          0.0000000000000000     
  -18.240000000000002          0.0000000000000000     
  -18.180000000000000          0.0000000000000000     
  -18.120000000000001          0.0000000000000000     
  -18.060000000000002          0.0000000000000000     
  -18.000000000000000          0.0000000000000000     
  -17.940000000000001          0.0000000000000000     
  -17.879999999999999          0.0000000000000000     
  -17.820000000000000          0.0000000000000000     
  -17.759999999999998          0.0000000000000000     
  -17.699999999999999          0.0000000000000000     
  -17.640000000000001          0.0000000000000000     
  -17.579999999999998          0.0000000000000000     
  -17.520000000000000          0.0000000000000000     
  -17.460000000000001          0.0000000000000000     
  -17.399999999999999          0.0000000000000000     
  -17.340000000000000          0.0000000000000000     
  -17.280000000000001          0.0000000000000000     
  -17.219999999999999          0.0000000000000000     
  -17.160000000000000          0.0000000000000000     
  -17.100000000000001          0.0000000000000000     
  -17.039999999999999          0.0000000000000000     
  -16.980000000000000          0.0000000000000000     
  -16.920000000000002          0.0000000000000000     
  -16.859999999999999          0.0000000000000000     
  -16.800000000000001          0.0000000000000000     
  -16.740000000000002          0.0000000000000000     
  -16.680000000000000          0.0000000000000000     
  -16.620000000000001          0.0000000000000000     
  -16.560000000000002          0.0000000000000000     
  -16.500000000000000          0.0000000000000000     
  -16.440000000000001          0.0000000000000000     
  -16.379999999999999          0.0000000000000000     
  -16.320000000000000          0.0000000000000000     
  -16.260000000000002          0.0000000000000000     
  -16.199999999999999          0.0000000000000000     
  -16.140000000000001          0.0000000000000000     
  -16.079999999999998          0.0000000000000000     
  -16.020000000000000          0.0000000000000000     
  -15.960000000000001          0.0000000000000000     
  -15.900000000000000          0.0000000000000000     
  -15.840000000000000          0.0000000000000000     
  -15.780000000000001          0.0000000000000000     
  -15.720000000000001          0.0000000000000000     
  -15.660000000000000          0.0000000000000000     
  -15.600000000000000          0.0000000000000000     
  -15.540000000000001          0.0000000000000000     
  -15.480000000000000          0.0000000000000000     
  -15.420000000000000          0.0000000000000000     
  -15.359999999999999          0.0000000000000000     
  -15.300000000000001          0.0000000000000000     
  -15.240000000000000          0.0000000000000000     
  -15.180000000000000          0.0000000000000000     
  -15.120000000000001          0.0000000000000000     
  -15.060000000000000          0.0000000000000000     
  -15.000000000000000          0.0000000000000000     
  -14.940000000000000          0.0000000000000000     
  -14.880000000000001          0.0000000000000000     
  -14.820000000000000          0.0000000000000000     
  -14.760000000000000          0.0000000000000000     
  -14.700000000000001          0.0000000000000000     
  -14.640000000000001          0.0000000000000000     
  -14.580000000000000          0.0000000000000000     
  -14.520000000000000          0.0000000000000000     
  -14.460000000000001          0.0000000000000000     
  -14.400000000000000          0.0000000000000000     
  -14.340000000000000          0.0000000000000000     
  -14.280000000000001          0.0000000000000000     
  -14.220000000000001          0.0000000000000000     
  -14.160000000000000          0.0000000000000000     
  -14.100000000000000          0.0000000000000000     
  -14.040000000000001          0.0000000000000000     
  -13.980000000000000          0.0000000000000000     
  -13.920000000000000          0.0000000000000000     
  -13.860000000000001          0.0000000000000000     
  -13.800000000000001          0.0000000000000000     
  -13.740000000000000          0.0000000000000000     
  -13.680000000000000          0.0000000000000000     
  -13.620000000000001          0.0000000000000000     
  -13.560000000000000          0.0000000000000000     
  -13.500000000000000          0.0000000000000000     
  -13.440000000000001          0.0000000000000000     
  -13.380000000000001         -1.0401790199574614E-040
  -13.320000000000000         -2.8951195900996020E-040
  -13.260000000000000         -5.6451272365968956E-040
  -13.200000000000001         -9.3377969922090511E-040
  -13.140000000000001         -1.3975794070355151E-039
  -13.080000000000000         -1.9504036103047238E-039
  -13.020000000000000         -2.5796156265953841E-039
  -12.960000000000001         -3.2428850693351407E-039
  -12.900000000000000         -3.9061543399868638E-039
  -12.840000000000000         -4.5694236106385869E-039
  -12.780000000000001         -5.1818622063024205E-039
  -12.720000000000001         -5.6557754418027625E-039
  -12.660000000000000         -5.9545763686858617E-039
  -12.600000000000000         -6.0923803358128532E-039
  -12.540000000000001         -5.6401095797596461E-039
  -12.480000000000000         -4.2433467304431655E-039
  -12.420000000000000         -1.9373037529293679E-039
  -12.360000000000001          1.3598408454614732E-039
  -12.300000000000001          5.5369520964204769E-039
  -12.240000000000000          1.0600725429067659E-038
  -12.180000000000000          1.6098631783211505E-038
  -12.120000000000001          2.1951480720116717E-038
  -12.060000000000000          2.8444144705409659E-038
  -12.000000000000000          3.5278399307119510E-038
  -11.940000000000001          4.2663423767027812E-038
  -11.880000000000001          5.0428465384318324E-038
  -11.820000000000000          5.7706897960031106E-038
  -11.760000000000000          6.3562204705779084E-038
  -11.700000000000001          6.7807569002517672E-038
  -11.640000000000001          7.0587789339138595E-038
  -11.580000000000000          7.1660882267597057E-038
  -11.520000000000000          7.0789745469927470E-038
  -11.460000000000001          6.7752580591367789E-038
  -11.400000000000000          6.2355738841584954E-038
  -11.340000000000000          5.4448976529358209E-038
  -11.280000000000001          4.3923025089127308E-038
  -11.220000000000001          3.0935858264321741E-038
  -11.160000000000000          1.5681218251775736E-038
  -11.100000000000000         -1.8634329006521808E-039
  -11.040000000000001         -2.2059724706818179E-038
  -10.980000000000000         -4.3689036556441000E-038
  -10.920000000000000         -6.5962511455482284E-038
  -10.860000000000001         -8.5726074892655515E-038
  -10.800000000000001         -1.0339600904323748E-037
  -10.740000000000000         -1.1636669813442466E-037
  -10.680000000000000         -1.2163644760057179E-037
  -10.620000000000001         -1.1855683473209243E-037
  -10.560000000000000         -1.0581844694588333E-037
  -10.500000000000000         -8.2626820282216018E-038
  -10.440000000000001         -4.7149184711245637E-038
  -10.380000000000001          2.3311097694659979E-039
  -10.320000000000000          6.6463014732862139E-038
  -10.260000000000000          1.4832893483950161E-037
  -10.200000000000001          2.4967738374155915E-037
  -10.140000000000001          3.6975295203058666E-037
  -10.080000000000000          5.0721884315739677E-037
  -10.020000000000001          6.4810625985858207E-037
  -9.9600000000000009          7.9120725089408057E-037
  -9.9000000000000004          9.3672422925605415E-037
  -9.8399999999999999          1.0756619769779129E-036
  -9.7800000000000011          1.2146814695043279E-036
  -9.7200000000000006          1.3460311139072872E-036
  -9.6600000000000001          1.4611352137989499E-036
  -9.6000000000000014          1.5480505067411459E-036
  -9.5400000000000009          1.5937531546036946E-036
  -9.4800000000000004          1.5842399371860975E-036
  -9.4199999999999999          1.5047537990611529E-036
  -9.3600000000000012          1.3411538964704024E-036
  -9.3000000000000007          1.0734732584684065E-036
  -9.2400000000000002          6.6855154752643780E-037
  -9.1799999999999997          1.1341088926410887E-037
  -9.1200000000000010         -6.1207713257018601E-037
  -9.0600000000000005         -1.5214969689733604E-036
  -9.0000000000000000         -2.6108679173891323E-036
  -8.9400000000000013         -3.8790662828022354E-036
  -8.8800000000000008         -5.3048012154560203E-036
  -8.8200000000000003         -6.8705560852577084E-036
  -8.7599999999999998         -8.5456223513503090E-036
  -8.7000000000000011         -1.0287623534069869E-035
  -8.6400000000000006         -1.2040577821302055E-035
  -8.5800000000000001         -1.3739023143926378E-035
  -8.5200000000000014         -1.5300409353290015E-035
  -8.4600000000000009         -1.6617533086864437E-035
  -8.4000000000000004         -1.7567110805382068E-035
  -8.3399999999999999         -1.8000071457227617E-035
  -8.2800000000000011         -1.7779569091203259E-035
  -8.2200000000000006         -1.6732682810706165E-035
  -8.1600000000000001         -1.4699746513982799E-035
  -8.1000000000000014         -1.1489881768001049E-035
  -8.0400000000000009         -6.9438571151476449E-036
  -7.9800000000000004         -9.1488665001491760E-037
  -7.9200000000000017          6.7024465592797762E-036
  -7.8599999999999994          1.5987991037187123E-035
  -7.8000000000000007          2.6960123860770074E-035
  -7.7400000000000020          3.9590714652683219E-035
  -7.6799999999999997          5.3765414621850394E-035
  -7.6200000000000010          6.9277378676693661E-035
  -7.5600000000000023          8.5818030101299718E-035
  -7.5000000000000000          1.0296105658181845E-034
  -7.4400000000000013          1.2013882697328076E-034
  -7.3799999999999990          1.3665926793629390E-034
  -7.3200000000000003          1.5168076148296607E-034
  -7.2600000000000016          1.6423936116404917E-034
  -7.1999999999999993          1.7323746928615491E-034
  -7.1400000000000006          1.7743869411106334E-034
  -7.0800000000000018          1.7549111136643031E-034
  -7.0199999999999996          1.6597752224637150E-034
  -6.9600000000000009          1.4745742452725057E-034
  -6.9000000000000021          1.1851096699980334E-034
  -6.8399999999999999          7.7794527922870239E-035
  -6.7800000000000011          2.4112140787243053E-035
  -6.7199999999999989         -4.3501031950418305E-035
  -6.6600000000000001         -1.2568914024070458E-034
  -6.6000000000000014         -2.2267600689942508E-034
  -6.5399999999999991         -3.3416088786935939E-034
  -6.4800000000000004         -4.5920752171709124E-034
  -6.4200000000000017         -5.9613725937092891E-034
  -6.3599999999999994         -7.4241653293799044E-034
  -6.3000000000000007         -8.9457473675776191E-034
  -6.2400000000000020         -1.0481496861100240E-033
  -6.1799999999999997         -1.1975612947433879E-033
  -6.1200000000000010         -1.3361252629349373E-033
  -6.0600000000000023         -1.4560500597167048E-033
  -6.0000000000000000         -1.5484862958235091E-033
  -5.9400000000000013         -1.6036239042489493E-033
  -5.8799999999999990         -1.6108484989216064E-033
  -5.8200000000000003         -1.5589632273447317E-033
  -5.7600000000000016         -1.4364804867858192E-033
  -5.6999999999999993         -1.2319882316238009E-033
  -5.6400000000000006         -9.3459439362104456E-034
  -5.5800000000000018         -5.3444683419906699E-034
  -5.5199999999999996         -2.3329133931384187E-035
  -5.4600000000000009          6.0467977384440022E-034
  -5.4000000000000021          1.3524797367382680E-033
  -5.3399999999999999          2.2191865075789119E-033
  -5.2800000000000011          3.1993447957947785E-033
  -5.2200000000000024          4.2821321873600727E-033
  -5.1600000000000001          5.4505990788711822E-033
  -5.1000000000000014          6.6809689318028481E-033
  -5.0399999999999991          7.9420306062354530E-033
  -4.9800000000000004          9.1946799940231196E-033
  -4.9200000000000017          1.0391649378305747E-032
  -4.8599999999999994          1.1477475948158308E-032
  -4.8000000000000007          1.2388752748343935E-032
  -4.7400000000000020          1.3054724493771126E-032
  -4.6799999999999997          1.3398269292896742E-032
  -4.6200000000000010          1.3337311518495768E-032
  -4.5600000000000023          1.2786709946046767E-032
  -4.5000000000000000          1.1660642521320717E-032
  -4.4400000000000013          9.8755070116379541E-033
  -4.3799999999999990          7.3533519346089274E-033
  -4.3200000000000003          4.0258087555972667E-033
  -4.2600000000000016         -1.6150635838001212E-034
  -4.1999999999999993         -5.2441751497214287E-033
  -4.1400000000000006         -1.1233834009415566E-032
  -4.0800000000000018         -1.8112825091775093E-032
  -4.0199999999999996         -2.5828772393157562E-032
  -3.9600000000000009         -3.4289251306984389E-032
  -3.9000000000000021         -4.3356805728252377E-032
  -3.8399999999999999         -5.2844481740717918E-032
  -3.7800000000000011         -6.2512182391473151E-032
  -3.7200000000000024         -7.2064129833717424E-032
  -3.6600000000000001         -8.1147702107076658E-032
  -3.6000000000000014         -8.9354040514184072E-032
  -3.5399999999999991         -9.6220622707239006E-032
  -3.4800000000000004         -1.0123625556936582E-031
  -3.4200000000000017         -1.0384869022559822E-031
  -3.3599999999999994         -1.0347511325260160E-031
  -3.3000000000000007         -9.9515774424453544E-032
  -3.2400000000000020         -9.1370895008718412E-032
  -3.1799999999999997         -7.8460868795501884E-032
  -3.1200000000000010         -6.0249774421289567E-032
  -3.0600000000000023         -3.6272010465852240E-032
  -3.0000000000000000         -6.1618256681698920E-033
  -2.9400000000000013          3.0314778021980016E-032
  -2.8800000000000026          7.3226282560042117E-032
  -2.8200000000000003          1.2244088308808644E-031
  -2.7600000000000016          1.7759157270841722E-031
  -2.6999999999999993          2.3804226225931495E-031
  -2.6400000000000006          3.0285630940487122E-031
  -2.5800000000000018          3.7076877388736942E-031
  -2.5199999999999996          4.4016432186966335E-031
  -2.4600000000000009          5.0906211701621003E-031
  -2.4000000000000021          5.7511003658293804E-031
  -2.3399999999999999          6.3558981919761371E-031
  -2.2800000000000011          6.8743489603555892E-031
  -2.2200000000000024          7.2726322238400690E-031
  -2.1600000000000001          7.5142627488246357E-031
  -2.1000000000000014          7.5607624393251918E-031
  -2.0399999999999991          7.3725185208845114E-031
  -1.9800000000000004          6.9098446309744676E-031
  -1.9200000000000017          6.1342387111911720E-031
  -1.8599999999999994          5.0098411692523099E-031
  -1.8000000000000007          3.5050786636809973E-031
  -1.7400000000000020          1.5944815620531955E-031
  -1.6799999999999997         -7.3936066087777616E-032
  -1.6200000000000010         -3.5037313857006201E-031
  -1.5600000000000023         -6.6936627753168589E-031
  -1.5000000000000000         -1.0289801893719659E-030
  -1.4400000000000013         -1.4256336568991282E-030
  -1.3800000000000026         -1.8539064686628258E-030
  -1.3200000000000003         -2.3063673821848112E-030
  -1.2600000000000016         -2.7734355865511512E-030
  -1.1999999999999993         -3.2432812194231550E-030
  -1.1400000000000006         -3.7017807920799954E-030
  -1.0800000000000018         -4.1325331579632720E-030
  -1.0199999999999996         -4.5169520736554914E-030
 -0.96000000000000085         -4.8344391140151950E-030
 -0.90000000000000213         -5.0626544360658592E-030
 -0.83999999999999986         -5.1778866043532763E-030
 -0.78000000000000114         -5.1555324202796952E-030
 -0.72000000000000242         -4.9706901859663846E-030
 -0.66000000000000014         -4.5988672724488457E-030
 -0.60000000000000142         -4.0168054242900254E-030
 -0.53999999999999915         -3.2034082890282651E-030
 -0.48000000000000043         -2.1407737199545656E-030
 -0.42000000000000171         -8.1531408555383512E-031
 -0.35999999999999943          7.8106402270754601E-031
 -0.30000000000000071          2.6497301886370658E-030
 -0.24000000000000199          4.7840891984481702E-030
 -0.17999999999999972          7.1683628419425445E-030
 -0.12000000000000099          9.7764291317106486E-030
  -6.0000000000002274E-002     1.2570774215658889E-029
   0.0000000000000000          1.5501598755339160E-029
   5.9999999999998721E-002     1.8506133723291688E-029
  0.11999999999999744          2.1508224602940457E-029
  0.17999999999999972          2.4418238802284300E-029
  0.23999999999999844          2.7133364404764908E-029
  0.30000000000000071          2.9538337640207835E-029
  0.35999999999999943          3.1506672405863602E-029
  0.41999999999999815          3.2902434328569324E-029
  0.48000000000000043          3.3582584309033352E-029
  0.53999999999999915          3.3399942129334342E-029
  0.59999999999999787          3.2206788359874395E-029
  0.66000000000000014          2.9859065013194535E-029
  0.71999999999999886          2.6221215514525344E-029
  0.77999999999999758          2.1171593180755995E-029
  0.83999999999999986          1.4608361402020223E-029
  0.89999999999999858          6.4558631682064753E-030
  0.96000000000000085         -3.3287423280814473E-030
   1.0199999999999996         -1.4748625892876000E-029
   1.0799999999999983         -2.7760460209783514E-029
   1.1400000000000006         -4.2267739800413070E-029
   1.1999999999999993         -5.8114568060761225E-029
   1.2599999999999980         -7.5080015615948647E-029
   1.3200000000000003         -9.2873489735129654E-029
   1.3799999999999990         -1.1113122119231279E-028
   1.4399999999999977         -1.2941435149120496E-028
   1.5000000000000000         -1.4720873837650372E-028
   1.5599999999999987         -1.6392691725613507E-028
   1.6199999999999974         -1.7891242805413672E-028
   1.6799999999999997         -1.9144679328859259E-028
   1.7399999999999984         -2.0075941739025987E-028
   1.8000000000000007         -2.0604057204109315E-028
   1.8599999999999994         -2.0645755471749751E-028
   1.9199999999999982         -2.0117416355967177E-028
   1.9800000000000004         -1.8937348078266183E-028
   2.0399999999999991         -1.7028375027501747E-028
   2.0999999999999979         -1.4320718630491426E-028
   2.1600000000000001         -1.0755157426532407E-028
   2.2199999999999989         -6.2863840410631353E-029
   2.2799999999999976         -8.8652906420159385E-030
   2.3399999999999999          5.4512218099036473E-029
   2.3999999999999986          1.2709025863238536E-028
   2.4599999999999973          2.0840856149394060E-028
   2.5199999999999996          2.9769206909235848E-028
   2.5799999999999983          3.9382107241711132E-028
   2.6400000000000006          4.9530627703969980E-028
   2.6999999999999993          6.0026977354048503E-028
   2.7599999999999980          7.0643345408660572E-028
   2.8200000000000003          8.1111665907370611E-028
   2.8799999999999990          9.1124424470533161E-028
   2.9399999999999977          1.0033666457421030E-027
   3.0000000000000000          1.0836929456095749E-027
   3.0599999999999987          1.1481387515621478E-027
   3.1199999999999974          1.1923885826623557E-027
   3.1799999999999997          1.2119756042189281E-027
   3.2399999999999984          1.2023764754905450E-027
   3.3000000000000007          1.1591235803397679E-027
   3.3599999999999994          1.0779317943567936E-027
   3.4199999999999982          9.5484210949258229E-028
   3.4800000000000004          7.8637706574024801E-028
   3.5399999999999991          5.6970839272528778E-028
   3.5999999999999979          3.0283299604637919E-028
   3.6600000000000001         -1.5245485591156422E-029
   3.7199999999999989         -3.8433371606958973E-028
   3.7799999999999976         -8.0286909015171248E-028
   3.8399999999999999         -1.2677482344989530E-027
   3.8999999999999986         -1.7741699533010628E-027
   3.9599999999999973         -2.3154979287540983E-027
   4.0199999999999996         -2.8831514895828197E-027
   4.0799999999999983         -3.4665286185449410E-027
   4.1400000000000006         -4.0529712328121045E-027
   4.1999999999999993         -4.6277770862669122E-027
   4.2599999999999980         -5.1742689255237303E-027
   4.3200000000000003         -5.6739199926211567E-027
   4.3799999999999990         -6.1065526231075440E-027
   4.4399999999999977         -6.4506021079290009E-027
   4.5000000000000000         -6.6834619689068965E-027
   4.5599999999999987         -6.7819017479690500E-027
   4.6199999999999974         -6.7225678106773380E-027
   4.6799999999999997         -6.4825581063543441E-027
   4.7399999999999984         -6.0400746103531583E-027
   4.7999999999999972         -5.3751400053927838E-027
   4.8599999999999994         -4.4703779005969023E-027
   4.9199999999999982         -3.3118413062581291E-027
   4.9800000000000004         -1.8898762066902638E-027
   5.0399999999999991         -2.0000446037298392E-028
   5.0999999999999979          1.7561935227522057E-027
   5.1600000000000001          3.9702205596104922E-027
   5.2199999999999989          6.4258462365630690E-027
   5.2799999999999976          9.0983729283870171E-027
   5.3399999999999999          1.1954001426641147E-026
   5.3999999999999986          1.4949327923671570E-026
   5.4599999999999973          1.8031014928321959E-026
   5.5199999999999996          2.1135650503052171E-026
   5.5799999999999983          2.4189844622091209E-026
   5.6400000000000006          2.7110584673709115E-026
   5.6999999999999993          2.9805868713862826E-026
   5.7599999999999980          3.2175670455693199E-026
   5.8200000000000003          3.4113222814499259E-026
   5.8799999999999990          3.5506653281330010E-026
   5.9399999999999977          3.6240986150195541E-026
   6.0000000000000000          3.6200495416082335E-026
   6.0599999999999987          3.5271414815964004E-026
   6.1199999999999974          3.3344988330359632E-026
   6.1799999999999997          3.0320832262917674E-026
   6.2399999999999984          2.6110556693975325E-026
   6.2999999999999972          2.0641636788824047E-026
   6.3599999999999994          1.3861394398198558E-026
   6.4199999999999982          5.7411310997646388E-027
   6.4800000000000004         -3.7197833306537363E-027
   6.5399999999999991         -1.4489913988661056E-026
   6.5999999999999979         -2.6501964429516653E-026
   6.6600000000000001         -3.9649306268583543E-026
   6.7199999999999989         -5.3782975746720227E-026
   6.7799999999999976         -6.8709245179620679E-026
   6.8399999999999999         -8.4187927511507739E-026
   6.8999999999999986         -9.9931534405983024E-026
   6.9599999999999973         -1.1560549348248423E-025
   7.0199999999999996         -1.3082938741658552E-025
   7.0799999999999983         -1.4517959877301718E-025
   7.1400000000000006         -1.5819318900877045E-025
   7.1999999999999993         -1.6937335733679993E-025
   7.2599999999999980         -1.7819633864422451E-025
   7.3200000000000003         -1.8411992699010941E-025
   7.3799999999999990         -1.8659358531699414E-025
   7.4399999999999977         -1.8507009796432531E-025
   7.5000000000000000         -1.7901881049559043E-025
   7.5599999999999987         -1.6794016458116470E-025
   7.6199999999999974         -1.5138158990180717E-025
   7.6799999999999997         -1.2895431506696269E-025
   7.7399999999999984         -1.0035118921108587E-025
   7.7999999999999972         -6.5364828531074925E-026
   7.8599999999999994         -2.3905920178419507E-026
   7.9199999999999982          2.3978512773790081E-026
   7.9800000000000004          7.8087875394549976E-026
   8.0399999999999991          1.3805162668207342E-025
   8.1000000000000014          2.0331482918312902E-025
   8.1599999999999966          2.7312585328708101E-025
   8.2199999999999989          3.4652695128488156E-025
   8.2800000000000011          4.2234835686214149E-025
   8.3399999999999963          4.9920609647498592E-025
   8.3999999999999986          5.7550478410825449E-025
   8.4600000000000009          6.4944524710529221E-025
   8.5199999999999960          7.1903773377559815E-025
   8.5799999999999983          7.8212128597822222E-025
   8.6400000000000006          8.3638939775037710E-025