  -24.000000000000000          0.0000000000000000     
  -23.940000000000001          0.0000000000000000     
  -23.879999999999999          0.0000000000000000     
  -23.820000000000000          0.0000000000000000     
  -23.760000000000002          0.0000000000000000     
  -23.699999999999999          0.0000000000000000     
  -23.640000000000001          0.0000000000000000     
  -23.579999999999998          0.0000000000000000     
  -23.520000000000000          0.0000000000000000     
  -23.460000000000001          0.0000000000000000     
  -23.399999999999999          0.0000000000000000     
  -23.340000000000000          0.0000000000000000     
  -23.280000000000001          0.0000000000000000     
  -23.219999999999999          0.0000000000000000     
  -23.160000000000000          0.0000000000000000     
  -23.100000000000001          0.0000000000000000     
  -23.039999999999999          0.0000000000000000     
  -22.980000000000000          0.0000000000000000     
  -22.920000000000002          0.0000000000000000     
  -22.859999999999999          0.0000000000000000     
  -22.800000000000001          0.0000000000000000     
  -22.739999999999998          0.0000000000000000     
  -22.680000000000000          0.0000000000000000     
  -22.620000000000001          0.0000000000000000     
  -22.559999999999999          0.0000000000000000     
  -22.500000000000000          0.0000000000000000     
  -22.440000000000001          0.0000000000000000     
  -22.379999999999999          0.0000000000000000     
  -22.320000000000000          0.0000000000000000     
  -22.260000000000002          0.0000000000000000     
  -22.199999999999999          0.0000000000000000     
  -22.140000000000001          0.0000000000000000     
  -22.079999999999998          0.0000000000000000     
  -22.020000000000000          0.0000000000000000     
  -21.960000000000001          0.0000000000000000     
  -21.899999999999999          0.0000000000000000     
  -21.840000000000000          0.0000000000000000     
  -21.780000000000001          0.0000000000000000     
  -21.719999999999999          0.0000000000000000     
  -21.660000000000000          0.0000000000000000     
  -21.600000000000001          0.0000000000000000     
  -21.539999999999999          0.0000000000000000     
  -21.480000000000000          0.0000000000000000     
  -21.420000000000002          0.0000000000000000     
  -21.359999999999999          5.0593126155445500E-040
  -21.300000000000001          2.1720853379538472E-039
  -21.240000000000002          4.5886277849959513E-039
  -21.180000000000000          7.2654455470545485E-039
  -21.120000000000001          1.0963487787621588E-038
  -21.059999999999999          1.7079174078241938E-038
  -21.000000000000000          2.5383294308815161E-038
  -20.940000000000001          3.6727798184685991E-038
  -20.879999999999999          4.9143578964768424E-038
  -20.820000000000000          6.3028462749036044E-038
  -20.760000000000002          7.8901101372825920E-038
  -20.699999999999999          9.5605355244246745E-038
  -20.640000000000001          1.1439558995736391E-037
  -20.579999999999998          1.3625791300865514E-037
  -20.520000000000000          1.6220527066498362E-037
  -20.460000000000001          1.9243188269364680E-037
  -20.399999999999999          2.2659407259826443E-037
  -20.340000000000000          2.6347789546127315E-037
  -20.280000000000001          2.9364940843539744E-037
  -20.219999999999999          3.1121183762541561E-037
  -20.160000000000000          3.1083983964217666E-037
  -20.100000000000001          2.7643381179763683E-037
  -20.039999999999999          1.9808229284196468E-037
  -19.980000000000000          7.5360644108101625E-038
  -19.920000000000002         -1.2670553580588726E-037
  -19.859999999999999         -4.3730707139390200E-037
  -19.800000000000001         -8.8267084847976164E-037
  -19.740000000000002         -1.5063673183431511E-036
  -19.680000000000000         -2.3571866305762687E-036
  -19.620000000000001         -3.4522935577909038E-036
  -19.560000000000002         -4.8227293654788188E-036
  -19.500000000000000         -6.5976440087677792E-036
  -19.440000000000001         -8.7060113050342493E-036
  -19.379999999999999         -1.0999566790047429E-035
  -19.320000000000000         -1.3363843346790144E-035
  -19.259999999999998         -1.5603739363964954E-035
  -19.199999999999999         -1.7453562286487920E-035
  -19.140000000000001         -1.8535488504572373E-035
  -19.079999999999998         -1.8347775178234726E-035
  -19.020000000000000         -1.6246677717184899E-035
  -18.960000000000001         -1.1479303499161479E-035
  -18.899999999999999         -3.0901245195478041E-036
  -18.840000000000000          9.9783102107506034E-036
  -18.780000000000001          2.8827700410473481E-035
  -18.719999999999999          5.4562734398869019E-035
  -18.660000000000000          8.8206713900425313E-035
  -18.600000000000001          1.3053846941391570E-034
  -18.539999999999999          1.8190153859557016E-034
  -18.480000000000000          2.4196526569187033E-034
  -18.420000000000002          3.0944299544367589E-034
  -18.359999999999999          3.8177110516244795E-034
  -18.300000000000001          4.5463061515048642E-034
  -18.240000000000002          5.2175191022987674E-034
  -18.180000000000000          5.7446237588614020E-034
  -18.120000000000001          6.0130350376728977E-034
  -18.060000000000002          5.8795152699603545E-034
  -18.000000000000000          5.1714676807876636E-034
  -17.940000000000001          3.6885798192571555E-034
  -17.879999999999999          1.2080093625952764E-034
  -17.820000000000000         -2.5065542153693052E-034
  -17.759999999999998         -7.6907474881034998E-034
  -17.699999999999999         -1.4559553296936811E-033
  -17.640000000000001         -2.3281041613071522E-033
  -17.579999999999998         -3.3942565273344895E-033
  -17.520000000000000         -4.6510564232859096E-033
  -17.460000000000001         -6.0782587655330423E-033
  -17.399999999999999         -7.6336002945102191E-033
  -17.340000000000000         -9.2470668002923986E-033
  -17.280000000000001         -1.0815339823674865E-032
  -17.219999999999999         -1.2196545413753852E-032
  -17.160000000000000         -1.3205967719106796E-032
  -17.100000000000001         -1.3613417463407149E-032
  -17.039999999999999         -1.3143049290316397E-032
  -16.980000000000000         -1.1476592701200690E-032
  -16.920000000000002         -8.2609877371527385E-033
  -16.859999999999999         -3.1215000906209868E-033
  -16.800000000000001          4.3186523973513663E-033
  -16.740000000000002          1.4411252946252763E-032
  -16.680000000000000          2.7447882563383140E-032
  -16.620000000000001          4.3616228793076472E-032
  -16.560000000000002          6.2948013437252369E-032
  -16.500000000000000          8.5259251045015045E-032
  -16.440000000000001          1.1008451101682720E-031
  -16.379999999999999          1.3660758095433651E-031
  -16.320000000000000          1.6359223889155922E-031
  -16.260000000000002          1.8931804569812824E-031
  -16.199999999999999          2.1152715345923178E-031
  -16.140000000000001          2.2738989234067893E-031
  -16.079999999999998          2.3349738672691248E-031
  -16.020000000000000          2.2589135053705482E-031
  -15.960000000000001          2.0014113914383151E-031
  -15.900000000000000          1.5147875086735804E-031
  -15.840000000000000          7.5002098694556622E-032
  -15.780000000000001         -3.4044538170437399E-032
  -15.720000000000001         -1.7990617873665312E-031
  -15.660000000000000         -3.6586525549618470E-031
  -15.600000000000000         -5.9370352937038381E-031
  -15.540000000000001         -8.6308455323362063E-031
  -15.480000000000000         -1.1708713036370567E-030
  -15.420000000000000         -1.5104024831530853E-030
  -15.359999999999999         -1.8707589390358788E-030
  -15.300000000000001         -2.2360655175403766E-030
  -15.240000000000000         -2.5848824917944829E-030
  -15.180000000000000         -2.8897520987722876E-030
  -15.120000000000001         -3.1169792169434769E-030
  -15.060000000000000         -3.2267260367816092E-030
  -15.000000000000000         -3.1735196356840179E-030
  -14.940000000000000         -2.9072613553147323E-030
  -14.880000000000001         -2.3748317702208959E-030
  -14.820000000000000         -1.5223710478701115E-030
  -14.760000000000000         -2.9830489248318230E-031
  -14.700000000000001          1.3428449025433818E-030
  -14.640000000000001          3.4358617627368126E-030
  -14.580000000000000          5.9994784413473201E-030
  -14.520000000000000          9.0303689575376856E-030
  -14.460000000000001          1.2496641533265041E-029
  -14.400000000000000          1.6331065452334752E-029
  -14.340000000000000          2.0424358948960648E-029
  -14.280000000000001          2.4618940610856770E-029
  -14.220000000000001          2.8703623934934187E-029
  -14.160000000000000          3.2409852201070815E-029
  -14.100000000000000          3.5410116280590583E-029
  -14.040000000000001          3.7319266780880968E-029
  -13.980000000000000          3.7699445408953305E-029
  -13.920000000000000          3.6069427786779529E-029
  -13.860000000000001          3.1919030617328814E-029
  -13.800000000000001          2.4729214660512089E-029
  -13.740000000000000          1.3998376532848189E-029
  -13.680000000000000         -7.2495588592143716E-031
  -13.620000000000001         -1.9803046288564533E-029
  -13.560000000000000         -4.3463849962300443E-029
  -13.500000000000000         -7.1750752727191753E-029
  -13.440000000000001         -1.0446842605701291E-028
  -13.380000000000001         -1.4112673771708234E-028
  -13.320000000000000         -1.8088511170665247E-028
  -13.260000000000000         -2.2250046713252470E-028
  -13.200000000000001         -2.6428258670231566E-028
  -13.140000000000001         -3.0406099443100265E-028
  -13.080000000000000         -3.3916834305249979E-028
  -13.020000000000000         -3.6644556228418338E-028
  -12.960000000000001         -3.8227385793676309E-028
  -12.900000000000000         -3.8263945824535597E-028
  -12.840000000000000         -3.6323567339516780E-028
  -12.780000000000001         -3.1960717679156508E-028
  -12.720000000000001         -2.4733955322840176E-028
  -12.660000000000000         -1.4229629920787790E-028
  -12.600000000000000         -9.0325646001657638E-031
  -12.540000000000001          1.7952199201090154E-028
  -12.480000000000000          4.0040064914230976E-028
  -12.420000000000000          6.6149226771397368E-028
  -12.360000000000001          9.6047498856890826E-028
  -12.300000000000001          1.2925230710904912E-027
  -12.240000000000000          1.6499015914044580E-027
  -12.180000000000000          2.0216028515610505E-027
  -12.120000000000001          2.3930533106454484E-027
  -12.060000000000000          2.7459214205249131E-027
  -12.000000000000000          3.0580627737316171E-027
  -11.940000000000001          3.3036354476032751E-027
  -11.880000000000001          3.4534256122093405E-027
  -11.820000000000000          3.4754158046832505E-027
  -11.760000000000000          3.3356265778739095E-027
  -11.700000000000001          2.9992603617204535E-027
  -11.640000000000001          2.4321632078556218E-027
  -11.580000000000000          1.6026092819608836E-027
  -11.520000000000000          4.8340301828247817E-028
  -11.460000000000001         -9.4572453185076747E-028
  -11.400000000000000         -2.6954722950923513E-027
  -11.340000000000000         -4.7641409610265328E-027
  -11.280000000000001         -7.1347093061449125E-027
  -11.220000000000001         -9.7719306052983919E-027
  -11.160000000000000         -1.2619587265455403E-026
  -11.100000000000000         -1.5598063515684788E-026
  -11.040000000000001         -1.8602429757535820E-026
  -10.980000000000000         -2.1501240599630655E-026
  -10.920000000000000         -2.4136256758175325E-026
  -10.860000000000001         -2.6323331891174658E-026
  -10.800000000000001         -2.7854667827142490E-026
  -10.740000000000000         -2.8502673606777905E-026
  -10.680000000000000         -2.8025593941773812E-026
  -10.620000000000001         -2.6175065959788887E-026
  -10.560000000000000         -2.2705681355750412E-026
  -10.500000000000000         -1.7386618094054704E-026
  -10.440000000000001         -1.0015231904166910E-026
  -10.380000000000001         -4.3249028074015577E-028
  -10.320000000000000          1.1460056291303843E-026
  -10.260000000000000          2.5682164867709167E-026
  -10.200000000000001          4.2156177969255343E-026
  -10.140000000000001          6.0688385931180379E-026
  -10.080000000000000          8.0951321996850183E-026
  -10.020000000000001          1.0246790501202319E-025
  -9.9600000000000009          1.2459857447391703E-025
  -9.9000000000000004          1.4653260941892944E-025
  -9.8399999999999999          1.6728484495591649E-025
  -9.7800000000000011          1.8569916213285301E-025
  -9.7200000000000006          2.0045999610005278E-025
  -9.6600000000000001          2.1011314369079972E-025
  -9.6000000000000014          2.1309686539857877E-025
  -9.5400000000000009          2.0778430902202491E-025
  -9.4800000000000004          1.9253759932948953E-025
  -9.4199999999999999          1.6577418219699152E-025
  -9.3600000000000012          1.2604470648945077E-025
  -9.3000000000000007          7.2122134018133753E-026
  -9.2400000000000002          3.1002846710585283E-027
  -9.1799999999999997         -8.1499984910613525E-026
  -9.1200000000000010         -1.8161999288918515E-025
  -9.0600000000000005         -2.9655127050008590E-025
  -9.0000000000000000         -4.2482690912190425E-025
  -8.9400000000000013         -5.6412120217900492E-025
  -8.8800000000000008         -7.1116352453955245E-025
  -8.8200000000000003         -8.6167258606135117E-025
  -8.7599999999999998         -1.0103181528172585E-024
  -8.7000000000000011         -1.1507171132213378E-024
  -8.6400000000000006         -1.2754710768495441E-024
  -8.5800000000000001         -1.3762520538624531E-024
  -8.5200000000000014         -1.4439432627824435E-024
  -8.4600000000000009         -1.4688391652893531E-024
  -8.4000000000000004         -1.4409094385029834E-024
  -8.3399999999999999         -1.3501296278743170E-024
  -8.2800000000000011         -1.1868765861485883E-024
  -8.2200000000000006         -9.4238850012158982E-025
  -8.1600000000000001         -6.0928209634682515E-025
  -8.1000000000000014         -1.8211967396266967E-025
  -8.0400000000000009          3.4198905478512834E-025
  -7.9800000000000004          9.6276287163764906E-025
  -7.9200000000000017          1.6761266064531020E-024
  -7.8599999999999994          2.4736118996738033E-024
  -7.8000000000000007          3.3418108338051901E-024
  -7.7400000000000020          4.2619108225986603E-024
  -7.6799999999999997          5.2093480616614255E-024
  -7.6200000000000010          6.1536105551240954E-024
  -7.5600000000000023          7.0582316614052724E-024
  -7.5000000000000000          7.8810057232996191E-024
  -7.4400000000000013          8.5744634294666751E-024
  -7.3799999999999990          9.0866348133583419E-024
  -7.3200000000000003          9.3621316134218718E-024
  -7.2600000000000016          9.3435562596885454E-024
  -7.1999999999999993          8.9732576677586545E-024
  -7.1400000000000006          8.1954286254487356E-024
  -7.0800000000000018          6.9585280476059928E-024
  -7.0199999999999996          5.2179981579377442E-024
  -6.9600000000000009          2.9392389789241155E-024
  -6.9000000000000021          1.0076609259592183E-025
  -6.8399999999999999         -3.3025218998212294E-024
  -6.7800000000000011         -7.2560717036845056E-024
  -6.7199999999999989         -1.1722513626580401E-023
  -6.6600000000000001         -1.6638748609112655E-023
  -6.6000000000000014         -2.1913431060220480E-023
  -6.5399999999999991         -2.7425012058818351E-023
  -6.4800000000000004         -3.3020513726678957E-023
  -6.4200000000000017         -3.8515216156947046E-023
  -6.3599999999999994         -4.3693419267134588E-023
  -6.3000000000000007         -4.8310451006314219E-023
  -6.2400000000000020         -5.2096073410645400E-023
  -6.1799999999999997         -5.4759408974390727E-023
  -6.1200000000000010         -5.5995490447036010E-023
  -6.0600000000000023         -5.5493451964097833E-023
  -6.0000000000000000         -5.2946429982289356E-023
  -5.9400000000000013         -4.8063059221447550E-023
  -5.8799999999999990         -4.0580470221205568E-023
  -5.8200000000000003         -3.0278569154020802E-023
  -5.7600000000000016         -1.6995366750114797E-023
  -5.6999999999999993         -6.4297705170030105E-025
  -5.6400000000000006          1.8776178371060563E-023
  -5.5800000000000018          4.1153421924144711E-023
  -5.5199999999999996          6.6258772826114356E-023
  -5.4600000000000009          9.3727491561137893E-023
  -5.4000000000000021          1.2304886545201174E-022
  -5.3399999999999999          1.5355806549179188E-022
  -5.2800000000000011          1.8443189307037170E-022
  -5.2200000000000024          2.1468915955109615E-022
  -5.1600000000000001          2.4319644725839448E-022
  -5.1000000000000014          2.6868008202791331E-022
  -5.0399999999999991          2.8974483655663540E-022
  -4.9800000000000004          3.0489980373617516E-022
  -4.9200000000000017          3.1259205814938075E-022
  -4.8599999999999994          3.1124781125969206E-022
  -4.8000000000000007          2.9932142521714018E-022
  -4.7400000000000020          2.7535146026460294E-022
  -4.6799999999999997          2.3802342780261505E-022
  -4.6200000000000010          1.8623814505226054E-022
  -4.5600000000000023          1.1918413571414996E-022
  -4.5000000000000000          3.6412823960894717E-023
  -4.4400000000000013         -6.2086015588277284E-023
  -4.3799999999999990         -1.7581066499301276E-022
  -4.3200000000000003         -3.0367853694728375E-022
  -4.2600000000000016         -4.4396485554692806E-022
  -4.1999999999999993         -5.9425228426013577E-022
  -4.1400000000000006         -7.5139467749777166E-022
  -4.0800000000000018         -9.1149873276656814E-022
  -4.0199999999999996         -1.0699264464260179E-021
  -3.9600000000000009         -1.2213221133172243E-021
  -3.9000000000000021         -1.3596666824025957E-021
  -3.8399999999999999         -1.4783618545929995E-021
  -3.7800000000000011         -1.5703462835804051E-021
  -3.7200000000000024         -1.6282447854912141E-021
  -3.6600000000000001         -1.6445513569681983E-021
  -3.6000000000000014         -1.6118451853548974E-021
  -3.5399999999999991         -1.5230379401499905E-021
  -3.4800000000000004         -1.3716498932095989E-021
  -3.4200000000000017         -1.1521098578371263E-021
  -3.3599999999999994         -8.6007369080108338E-022
  -3.3000000000000007         -4.9275403318676194E-022
  -3.2400000000000020         -4.9253385000407795E-023
  -3.1799999999999997          4.6911110578346804E-022
  -3.1200000000000010          1.0584994530185252E-021
  -3.0600000000000023          1.7122733124943588E-021
  -3.0000000000000000          2.4207622680154636E-021
  -2.9400000000000013          3.1710891010453378E-021
  -2.8800000000000026          3.9470660191524775E-021
  -2.8200000000000003          4.7291757181921299E-021
  -2.7600000000000016          5.4946523133303066E-021
  -2.6999999999999993          6.2176728532778764E-021
  -2.6400000000000006          6.8696702895127444E-021
  -2.5800000000000018          7.4197753741028939E-021
  -2.5199999999999996          7.8353974979538948E-021
  -2.4600000000000009          8.0829408292175094E-021
  -2.4000000000000021          8.1286590948939594E-021
  -2.3399999999999999          7.9396417082616103E-021
  -2.2800000000000011          7.4849201597561699E-021
  -2.2200000000000024          6.7366824057446729E-021
  -2.1600000000000001          5.6715689107686003E-021
  -2.1000000000000014          4.2720281328304497E-021
  -2.0399999999999991          2.5277010071819807E-021
  -1.9800000000000004          4.3679414779307882E-022
  -1.9200000000000017         -1.9926018082834391E-021
  -1.8599999999999994         -4.7412878196330066E-021
  -1.8000000000000007         -7.7778834126000272E-021
  -1.7400000000000020         -1.1057953505220315E-020
  -1.6799999999999997         -1.4523387301460489E-020
  -1.6200000000000010         -1.8102089087063032E-020
  -1.5600000000000023         -2.1708027207970435E-020
  -1.5000000000000000         -2.5241693118213941E-020
  -1.4400000000000013         -2.8591012725016653E-020
  -1.3800000000000026         -3.1632751470137124E-020
  -1.3200000000000003         -3.4234427876268753E-020
  -1.2600000000000016         -3.6256773094142330E-020
  -1.1999999999999993         -3.7556727016835929E-020
  -1.1400000000000006         -3.7990951615888839E-020
  -1.0800000000000018         -3.7419844319415685E-020
  -1.0199999999999996         -3.5712012566346614E-020
 -0.96000000000000085         -3.2749130251760158E-020
 -0.90000000000000213         -2.8431097655943411E-020
 -0.83999999999999986         -2.2681403436875136E-020
 -0.78000000000000114         -1.5452550922920115E-020
 -0.72000000000000242         -6.7314420927145266E-021
 -0.66000000000000014          3.4554969637967801E-021
 -0.60000000000000142          1.5037554960613387E-020
 -0.53999999999999915          2.7895581542654599E-020
 -0.48000000000000043          4.1858597277096755E-020
 -0.42000000000000171          5.6701393104765237E-020
 -0.35999999999999943          7.2143255758198332E-020
 -0.30000000000000071          8.7848101573412419E-020
 -0.24000000000000199          1.0342609404506603E-019
 -0.17999999999999972          1.1843696911288927E-019
 -0.12000000000000099          1.3239516018341023E-019
  -6.0000000000002274E-002     1.4477684461555679E-019
   0.0000000000000000          1.5502892054505012E-019
   5.9999999999998721E-002     1.6258002793272877E-019
  0.11999999999999744          1.6685337019093609E-019
  0.17999999999999972          1.6728152256947463E-019
  0.23999999999999844          1.6332275700254718E-019
  0.30000000000000071          1.5447891807641411E-019
  0.35999999999999943          1.4031442781165000E-019
  0.41999999999999815          1.2047601322340707E-019
  0.48000000000000043          9.4712784275270748E-020
  0.53999999999999915          6.2896328182552822E-020
  0.59999999999999787          2.5039945518653926E-020
  0.66000000000000014         -1.8683233713641833E-020
  0.71999999999999886         -6.7924151571051176E-020
  0.77999999999999758         -1.2214419486802598E-019
  0.83999999999999986         -1.8060483550298106E-019
  0.89999999999999858         -2.4236116852659444E-019
  0.96000000000000085         -3.0625998205902357E-019
   1.0199999999999996         -3.7094299467793482E-019
   1.0799999999999983         -4.3485568532284478E-019
   1.1400000000000006         -4.9626247684270118E-019
   1.1999999999999993         -5.5326816379142924E-019
   1.2599999999999980         -6.0384634131756981E-019
   1.3200000000000003         -6.4587441389355882E-019
   1.3799999999999990         -6.7717553648536900E-019
   1.4399999999999977         -6.9556691292743524E-019
   1.5000000000000000         -6.9891415091428020E-019
   1.5599999999999987         -6.8519095870937084E-019
   1.6199999999999974         -6.5254336845676752E-019
   1.6799999999999997         -5.9935741781174563E-019
   1.7399999999999984         -5.2432868320726531E-019
   1.8000000000000007         -4.2653256512381454E-019
   1.8599999999999994         -3.0549357083486868E-019
   1.9199999999999982         -1.6125156673005985E-019
   1.9800000000000004          5.5771653868184384E-021
   2.0399999999999991          1.9374519483113367E-019
   2.0999999999999979          4.0132918062887277E-019
   2.1600000000000001          6.2569579234572514E-019
   2.2199999999999989          8.6348153170413994E-019
   2.2799999999999976          1.1105874551579701E-018
   2.3399999999999999          1.3621917748992545E-018
   2.3999999999999986          1.6127813271205479E-018
   2.4599999999999973          1.8562029143166736E-018
   2.5199999999999996          2.0857364779582694E-018
   2.5799999999999983          2.2941900396578338E-018
   2.6400000000000006          2.4740168459236788E-018
   2.6999999999999993          2.6174544920418568E-018
   2.7599999999999980          2.7166838964051828E-018
   2.8200000000000003          2.7640091706847589E-018
   2.8799999999999990          2.7520531497332420E-018
   2.9399999999999977          2.6739680181841121E-018
   3.0000000000000000          2.5236570465992668E-018
   3.0599999999999987          2.2960024183835166E-018
   3.1199999999999974          1.9870961682782410E-018
   3.1799999999999997          1.5944674182142880E-018
   3.2399999999999984          1.1173025935201037E-018
   3.3000000000000007          5.5664908053733697E-019
   3.3599999999999994         -8.4400298024261749E-020
   3.4199999999999982         -8.0055095264452852E-019
   3.4800000000000004         -1.5841841674663555E-018
   3.5399999999999991         -2.4252734205898485E-018
   3.5999999999999979         -3.3113483155123954E-018
   3.6600000000000001         -4.2275103550748474E-018
   3.7199999999999989         -5.1565038404503103E-018
   3.7799999999999976         -6.0788499608902398E-018
   3.8399999999999999         -6.9730449118342915E-018
   3.8999999999999986         -7.8158219890651673E-018
   3.9599999999999973         -8.5824839481559154E-018
   4.0199999999999996         -9.2473002022050197E-018
   4.0799999999999983         -9.7839687602547826E-018
   4.1400000000000006         -1.0166138492007243E-017
   4.1999999999999993         -1.0367986801792206E-017
   4.2599999999999980         -1.0364846706949727E-017
   4.3200000000000003         -1.0133866514617731E-017
   4.3799999999999990         -9.6547063864602674E-018
   4.4399999999999977         -8.9102420086381749E-018
   4.5000000000000000         -7.8872735807460607E-018
   4.5599999999999987         -6.5772224278023573E-018
   4.6199999999999974         -4.9767923807670663E-018
   4.6799999999999997         -3.0885890673052710E-018
   4.7399999999999984         -9.2167012882969765E-019
   4.7999999999999972          1.5079867049828005E-018
   4.8599999999999994          4.1771189511754325E-018
   4.9199999999999982          7.0549315981391593E-018
   4.9800000000000004          1.0102985057665025E-017
   5.0399999999999991          1.3275235455122660E-017
   5.0999999999999979          1.6518237013638004E-017
   5.1600000000000001          1.9771519440773647E-017
   5.2199999999999989          2.2968156389846601E-017
   5.2799999999999976          2.6035505555520313E-017
   5.3399999999999999          2.8896157136613159E-017
   5.3999999999999986          3.1469060254659417E-017
   5.4599999999999973          3.3670834178562638E-017
   5.5199999999999996          3.5417255942062549E-017
   5.5799999999999983          3.6624890575433168E-017
   5.6400000000000006          3.7212878215282103E-017
   5.6999999999999993          3.7104823157411486E-017
   5.7599999999999980          3.6230771151497973E-017
   5.8200000000000003          3.4529235012434832E-017
   5.8799999999999990          3.1949251263265028E-017
   5.9399999999999977          2.8452401361379935E-017
   6.0000000000000000          2.4014767758759651E-017
   6.0599999999999987          1.8628792972191093E-017
   6.1199999999999974          1.2304973836198356E-017
   6.1799999999999997          5.0733565213040477E-018
   6.2399999999999984         -3.0152181414687211E-018
   6.2999999999999972         -1.1888166802697633E-017
   6.3599999999999994         -2.1450543247688027E-017
   6.4199999999999982         -3.1584809354614672E-017
   6.4800000000000004         -4.2151013794290615E-017
   6.5399999999999991         -5.2987425305328836E-017
   6.5999999999999979         -6.3911611992684408E-017
   6.6600000000000001         -7.4722051335870317E-017
   6.7199999999999989         -8.5200216808631795E-017
   6.7799999999999976         -9.5113165293576007E-017
   6.8399999999999999         -1.0421662383968341E-016
   6.8999999999999986         -1.1225858005187683E-016
   6.9599999999999973         -1.1898326300978927E-016
   7.0199999999999996         -1.2413560879916685E-016
   7.0799999999999983         -1.2746604957790950E-016
   7.1400000000000006         -1.2873562159027599E-016
   7.1999999999999993         -1.2772129472933080E-016
   7.2599999999999980         -1.2422148394150023E-016
   7.3200000000000003         -1.1806164446563781E-016
   7.3799999999999990         -1.0909978731490677E-016
   7.4399999999999977         -9.7231957926293034E-017
   7.5000000000000000         -8.2397417066055605E-017
   7.5599999999999987         -6.4583510379141764E-017
   7.6199999999999974         -4.3830105627524843E-017
   7.6799999999999997         -2.0233392422582461E-017
   7.7399999999999984          6.0508791703307336E-018
   7.7999999999999972          3.4805019574085248E-017
   7.8599999999999994          6.5747896207271896E-017
   7.9199999999999982          9.8534386642044920E-017
   7.9800000000000004          1.3275590072789752E-016
   8.0399999999999991          1.6794201986258216E-016
   8.1000000000000014          2.0356337084622663E-016
   8.1599999999999966          2.3903568116664952E-016
   8.2199999999999989          2.7372511943177339E-016
   8.2800000000000011          3.0695490253292261E-016
   8.3399999999999963          3.3801312157292684E-016
   8.3999999999999986          3.6616180617656152E-016
   8.4600000000000009          3.9064720758782148E-016
   8.5199999999999960          4.1071099250431181E-016
   8.5799999999999983          4.2560258656581694E-016
   8.6400000000000006          4.3459228707348156E-016