  -24.000000000000000          0.0000000000000000     
  -23.940000000000001          0.0000000000000000     
  -23.879999999999999          0.0000000000000000     
  -23.820000000000000          0.0000000000000000     
  -23.760000000000002          0.0000000000000000     
  -23.699999999999999          0.0000000000000000     
  -23.640000000000001          0.0000000000000000     
  -23.579999999999998          0.0000000000000000     
  -23.520000000000000          0.0000000000000000     
  -23.460000000000001          0.0000000000000000     
  -23.399999999999999          0.0000000000000000     
  -23.340000000000000          0.0000000000000000     
  -23.280000000000001          0.0000000000000000     
  -23.219999999999999          0.0000000000000000     
  -23.160000000000000          0.0000000000000000     
  -23.100000000000001          0.0000000000000000     
  -23.039999999999999          0.0000000000000000     
  -22.980000000000000          0.0000000000000000     
  -22.920000000000002          0.0000000000000000     
  -22.859999999999999          0.0000000000000000     
  -22.800000000000001          0.0000000000000000     
  -22.739999999999998          0.0000000000000000     
  -22.680000000000000          0.0000000000000000     
  -22.620000000000001          0.0000000000000000     
  -22.559999999999999          0.0000000000000000     
  -22.500000000000000          0.0000000000000000     
  -22.440000000000001          0.0000000000000000     
  -22.379999999999999          0.0000000000000000     
  -22.320000000000000          0.0000000000000000     
  -22.260000000000002          0.0000000000000000     
  -22.199999999999999          0.0000000000000000     
  -22.140000000000001          0.0000000000000000     
  -22.079999999999998          0.0000000000000000     
  -22.020000000000000          0.0000000000000000     
  -21.960000000000001          0.0000000000000000     
  -21.899999999999999          0.0000000000000000     
  -21.840000000000000          0.0000000000000000     
  -21.780000000000001          0.0000000000000000     
  -21.719999999999999          0.0000000000000000     
  -21.660000000000000          0.0000000000000000     
  -21.600000000000001          0.0000000000000000     
  -21.539999999999999          0.0000000000000000     
  -21.480000000000000          0.0000000000000000     
  -21.420000000000002          0.0000000000000000     
  -21.359999999999999          0.0000000000000000     
  -21.300000000000001          0.0000000000000000     
  -21.240000000000002          0.0000000000000000     
  -21.180000000000000          0.0000000000000000     
  -21.120000000000001          0.0000000000000000     
  -21.059999999999999          0.0000000000000000     
  -21.000000000000000          0.0000000000000000     
  -20.940000000000001          0.0000000000000000     
  -20.879999999999999          0.0000000000000000     
  -20.820000000000000          0.0000000000000000     
  -20.760000000000002          0.0000000000000000     
  -20.699999999999999          0.0000000000000000     
  -20.640000000000001          0.0000000000000000     
  -20.579999999999998          0.0000000000000000     
  -20.520000000000000          0.0000000000000000     
  -20.460000000000001          0.0000000000000000     
  -20.399999999999999          0.0000000000000000     
  -20.340000000000000          0.0000000000000000     
  -20.280000000000001          0.0000000000000000     
  -20.219999999999999          0.0000000000000000     
  -20.160000000000000          0.0000000000000000     
  -20.100000000000001          0.0000000000000000     
  -20.039999999999999          0.0000000000000000     
  -19.980000000000000          0.0000000000000000     
  -19.920000000000002          0.0000000000000000     
  -19.859999999999999          0.0000000000000000     
  -19.800000000000001          0.0000000000000000     
  -19.740000000000002          4.4322783912043356E-040
  -19.680000000000000          1.0221347757991236E-039
  -19.620000000000001          1.6672817711926048E-039
  -19.560000000000002          2.3124287665860859E-039
  -19.500000000000000          2.9575757619795671E-039
  -19.440000000000001          3.5328315375977150E-039
  -19.379999999999999          3.5328315375977150E-039
  -19.320000000000000          2.5673752382990859E-039
  -19.259999999999998          1.3336728610199202E-039
  -19.199999999999999         -2.1297999972155259E-039
  -19.140000000000001         -8.9350916255636344E-039
  -19.079999999999998         -1.7726781869061545E-038
  -19.020000000000000         -2.7331449921808421E-038
  -18.960000000000001         -3.7816301726106534E-038
  -18.899999999999999         -4.9232310459550442E-038
  -18.840000000000000         -6.1594237747694417E-038
  -18.780000000000001         -7.4853689092630746E-038
  -18.719999999999999         -8.7580127448170296E-038
  -18.660000000000000         -9.9701051694602367E-038
  -18.600000000000001         -1.1097626341536152E-037
  -18.539999999999999         -1.2067247977343391E-037
  -18.480000000000000         -1.2852890577658436E-037
  -18.420000000000002         -1.3129326585523218E-037
  -18.359999999999999         -1.2776383979392990E-037
  -18.300000000000001         -1.1586592564957188E-037
  -18.240000000000002         -9.2504857961460953E-038
  -18.180000000000000         -5.3998909673353684E-038
  -18.120000000000001          3.8938558972946737E-039
  -18.060000000000002          8.5888633029481107E-038
  -18.000000000000000          1.9700980890733029E-037
  -17.940000000000001          3.4243640713720201E-037
  -17.879999999999999          5.2166178695447822E-037
  -17.820000000000000          7.3679701048003140E-037
  -17.759999999999998          9.7482426390243421E-037
  -17.699999999999999          1.2346519404086555E-036
  -17.640000000000001          1.4915676306689848E-036
  -17.579999999999998          1.7559175422342686E-036
  -17.520000000000000          1.9970926081535933E-036
  -17.460000000000001          2.1961524164340159E-036
  -17.399999999999999          2.3161594056325480E-036
  -17.340000000000000          2.3120092393545375E-036
  -17.280000000000001          2.1390544645779424E-036
  -17.219999999999999          1.7319572082316989E-036
  -17.160000000000000          1.0163031649184856E-036
  -17.100000000000001         -9.0796034488135046E-038
  -17.039999999999999         -1.6843506590051995E-036
  -16.980000000000000         -3.8502671362643905E-036
  -16.920000000000002         -6.6737878212801861E-036
  -16.859999999999999         -1.0162041205592311E-035
  -16.800000000000001         -1.4367404842433722E-035
  -16.740000000000002         -1.9331300415362982E-035
  -16.680000000000000         -2.5020518219128742E-035
  -16.620000000000001         -3.1336684886003456E-035
  -16.560000000000002         -3.8099743966055518E-035
  -16.500000000000000         -4.5029773490993809E-035
  -16.440000000000001         -5.1721722690566034E-035
  -16.379999999999999         -5.7636194868315397E-035
  -16.320000000000000         -6.2076896718500442E-035
  -16.260000000000002         -6.4186508146168666E-035
  -16.199999999999999         -6.2933554288137305E-035
  -16.140000000000001         -5.7129162352586185E-035
  -16.079999999999998         -4.5432158557989177E-035
  -16.020000000000000         -2.6387380121934625E-035
  -15.960000000000001          1.4876633090674929E-036
  -15.900000000000000          3.9672673526755822E-035
  -15.840000000000000          8.9592975199407644E-035
  -15.780000000000001          1.5238889565514831E-034
  -15.720000000000001          2.2881313624796068E-034
  -15.660000000000000          3.1900740181888385E-034
  -15.600000000000000          4.2233132246401331E-034
  -15.540000000000001          5.3710509207890190E-034
  -15.480000000000000          6.6037475563427701E-034
  -15.420000000000000          7.8758478888530413E-034
  -15.359999999999999          9.1236844156076516E-034
  -15.300000000000001          1.0263251543305781E-033
  -15.240000000000000          1.1188284683208633E-033
  -15.180000000000000          1.1769380876789649E-033
  -15.120000000000001          1.1853424013341873E-033
  -15.060000000000000          1.1265045234493927E-033
  -15.000000000000000          9.8095079897270243E-034
  -14.940000000000000          7.2780350416863864E-034
  -14.880000000000001          3.4547790570884893E-034
  -14.820000000000000         -1.8724297489594311E-034
  -14.760000000000000         -8.8990451686452268E-034
  -14.700000000000001         -1.7787119491984387E-033
  -14.640000000000001         -2.8645389365774537E-033
  -14.580000000000000         -4.1506093525670045E-033
  -14.520000000000000         -5.6299162914036177E-033
  -14.460000000000001         -7.2823856661798740E-033
  -14.400000000000000         -9.0718847687318812E-033
  -14.340000000000000         -1.0943208082102981E-032
  -14.280000000000001         -1.2819241810605203E-032
  -14.220000000000001         -1.4598345237413624E-032
  -14.160000000000000         -1.6152479636923908E-032
  -14.100000000000000         -1.7326033304759930E-032
  -14.040000000000001         -1.7935848759731068E-032
  -13.980000000000000         -1.7772728904536615E-032
  -13.920000000000000         -1.6604784561326931E-032
  -13.860000000000001         -1.4182973838286286E-032
  -13.800000000000001         -1.0249182414048191E-032
  -13.740000000000000         -4.5471421100598503E-033
  -13.680000000000000          3.1635707574801308E-033
  -13.620000000000001          1.3090312644278007E-032
  -13.560000000000000          2.5386888136285015E-032
  -13.500000000000000          4.0129970778931053E-032
  -13.440000000000001          5.7292750780990419E-032
  -13.380000000000001          7.6716371057489097E-032
  -13.320000000000000          9.8080036543368435E-032
  -13.260000000000000          1.2087088163160335E-031
  -13.200000000000001          1.4435511449589838E-031
  -13.140000000000001          1.6755218886794134E-031
  -13.080000000000000          1.8921413845696111E-031
  -13.020000000000000          2.0781252927674707E-031
  -12.960000000000001          2.2153580288833127E-031
  -12.900000000000000          2.2829973131327661E-031
  -12.840000000000000          2.2577426931291137E-031
  -12.780000000000001          2.1142971053451009E-031
  -12.720000000000001          1.8260519194884381E-031
  -12.660000000000000          1.3660194883451492E-031
  -12.600000000000000          7.0803601921422478E-032
  -12.540000000000001         -1.7175273614601821E-032
  -12.480000000000000         -1.2931210668379616E-031
  -12.420000000000000         -2.6697159109437494E-031
  -12.360000000000001         -4.3067600894901571E-031
  -12.300000000000001         -6.1985473932511878E-031
  -12.240000000000000         -8.3257977166354359E-031
  -12.180000000000000         -1.0652953438131214E-030
  -12.120000000000001         -1.3125538614413185E-030
  -12.060000000000000         -1.5667711001634965E-030
  -12.000000000000000         -1.8180171397822133E-030
  -11.940000000000001         -2.0538626048234317E-030
  -11.880000000000001         -2.2592989517209730E-030
  -11.820000000000000         -2.4167587482387845E-030
  -11.760000000000000         -2.5062566318872396E-030
  -11.700000000000001         -2.5056762007604964E-030
  -11.640000000000001         -2.3912261656299909E-030
  -11.580000000000000         -2.1380862300176169E-030
  -11.520000000000000         -1.7212623737475568E-030
  -11.460000000000001         -1.1166626565677746E-030
  -11.400000000000000         -3.0240089679874087E-031
  -11.340000000000000          7.3967584928680377E-031
  -11.280000000000001          2.0222461105959619E-030
  -11.220000000000001          3.5505869369259951E-030
  -11.160000000000000          5.3204993814114088E-030
  -11.100000000000000          7.3161421275318266E-030
  -11.040000000000001          9.5078478344873560E-030
  -10.980000000000000          1.1850005822296692E-029
  -10.920000000000000          1.4279130356528088E-029
  -10.860000000000001          1.6712229308700422E-029
  -10.800000000000001          1.9045624099940759E-029
  -10.740000000000000          2.1154369423147822E-029
  -10.680000000000000          2.2892448892668221E-029
  -10.620000000000001          2.4093904291409846E-029
  -10.560000000000000          2.4575084510575556E-029
  -10.500000000000000          2.4138174022239762E-029
  -10.440000000000001          2.2576127223324597E-029
  -10.380000000000001          1.9679171907101500E-029
  -10.320000000000000          1.5242918164000035E-029
  -10.260000000000000          9.0781459228821742E-030
  -10.200000000000001          1.0222225872286111E-030
  -10.140000000000001         -9.0479477514549982E-030
  -10.080000000000000         -2.1201617283105776E-029
  -10.020000000000001         -3.5438820688205342E-029
  -9.9600000000000009         -5.1674321672003008E-029
  -9.9000000000000004         -6.9721379171772295E-029
  -9.8399999999999999         -8.9275966715278781E-029
  -9.7800000000000011         -1.0990215514055107E-028
  -9.7200000000000006         -1.3101952116026078E-028
  -9.6600000000000001         -1.5189358868171925E-028
  -9.6000000000000014         -1.7163023140486117E-028
  -9.5400000000000009         -1.8917526208997851E-028
  -9.4800000000000004         -2.0332027402223205E-028
  -9.4199999999999999         -2.1271595932189284E-028
  -9.3600000000000012         -2.1589384911993683E-028
  -9.3000000000000007         -2.1129762091663124E-028
  -9.2400000000000002         -1.9732470530173531E-028
  -9.1799999999999997         -1.7237887299233308E-028
  -9.1200000000000010         -1.3493384447275299E-028
  -9.0600000000000005         -8.3608268287785291E-029
  -9.0000000000000000         -1.7251234246412742E-029
  -8.9400000000000013          6.4962765612703507E-029
  -8.8800000000000008          1.6343080794721378E-028
  -8.8200000000000003          2.7801297344489223E-028
  -8.7599999999999998          4.0792107849590344E-028
  -8.7000000000000011          5.5160841476410253E-028
  -8.6400000000000006          7.0666494224078347E-028
  -8.5800000000000001          8.6972299386794316E-028
  -8.5200000000000014          1.0363794688993720E-027
  -8.4600000000000009          1.2011404582766599E-027
  -8.4000000000000004          1.3573954076702401E-027
  -8.3399999999999999          1.4974275918641146E-027
  -8.2800000000000011          1.6124683656313801E-027
  -8.2200000000000006          1.6928015064066040E-027
  -8.1600000000000001          1.7279252240279227E-027
  -8.1000000000000014          1.7067758859114398E-027
  -8.0400000000000009          1.6180187021071640E-027
  -7.9800000000000004          1.4504089253783306E-027
  -7.9200000000000017          1.1932233115967220E-027
  -7.8599999999999994          8.3675968780296702E-028
  -7.8000000000000007          3.7290344435366257E-028
  -7.7400000000000020         -2.0425163154005717E-028
  -7.6799999999999997         -8.9773409085917459E-028
  -7.6200000000000010         -1.7069968370097536E-027
  -7.5600000000000023         -2.6272061419867044E-027
  -7.5000000000000000         -3.6485424586861937E-027
  -7.4400000000000013         -4.7555404365201013E-027
  -7.3799999999999990         -5.9264982811556745E-027
  -7.3200000000000003         -7.1329933002951567E-027
  -7.2600000000000016         -8.3395384483065373E-027
  -7.1999999999999993         -9.5034224597594472E-027
  -7.1400000000000006         -1.0574773580956582E-026
  -7.0800000000000018         -1.1496888150073100E-026
  -7.0199999999999996         -1.2206862168078027E-026
  -6.9600000000000009         -1.2636568143069685E-026
  -6.9000000000000021         -1.2713997108826662E-026
  -6.8399999999999999         -1.2365005062097152E-026
  -6.7800000000000011         -1.1515465574781742E-026
  -6.7199999999999989         -1.0093838190745953E-026
  -6.6600000000000001         -8.0341512443280446E-027
  -6.6000000000000014         -5.2793510792917961E-027
  -6.5399999999999991         -1.7849989999862693E-027
  -6.4800000000000004          2.4767646355183448E-027
  -6.4200000000000017          7.5130633840995700E-027
  -6.3599999999999994          1.3306050071177303E-026
  -6.3000000000000007          1.9808713959913734E-026
  -6.2400000000000020          2.6940883007832617E-026
  -6.1799999999999997          3.4585598189815989E-026
  -6.1200000000000010          4.2586047254027146E-026
  -6.0600000000000023          5.0743251920706386E-026
  -6.0000000000000000          5.8814756276398997E-026
  -5.9400000000000013          6.6514506716202460E-026
  -5.8799999999999990          7.3514161136138067E-026
  -5.8200000000000003          7.9446075028436110E-026
  -5.7600000000000016          8.3908102807395885E-026
  -5.6999999999999993          8.6470450894200414E-026
  -5.6400000000000006          8.6684685487287333E-026
  -5.5800000000000018          8.4095022173533416E-026
  -5.5199999999999996          7.8251879389145005E-026
  -5.4600000000000009          6.8727756609881976E-026
  -5.4000000000000021          5.5135237840967680E-026
  -5.3399999999999999          3.7146917338626247E-026
  -5.2800000000000011          1.4517093214920739E-026
  -5.2200000000000024         -1.2895453525962556E-026
  -5.1600000000000001         -4.5103773753205448E-026
  -5.1000000000000014         -8.1969101024279942E-026
  -5.0399999999999991         -1.2317774470522024E-025
  -4.9800000000000004         -1.6821952763571920E-025
  -4.9200000000000017         -2.1636866865687865E-025
  -4.8599999999999994         -2.6666813590995245E-025
  -4.8000000000000007         -3.1791857283881933E-025
  -4.7400000000000020         -3.6867297741012074E-025
  -4.6799999999999997         -4.1723829107766230E-025
  -4.6200000000000010         -4.6168500145062843E-025
  -4.5600000000000023         -4.9986576998364209E-025
  -4.5000000000000000         -5.2944447030145833E-025
  -4.4400000000000013         -5.4793565077292286E-025
  -4.3799999999999990         -5.5275613475297818E-025
  -4.3200000000000003         -5.4128799476941417E-025
  -4.2600000000000016         -5.1095386789726728E-025
  -4.1999999999999993         -4.5930383282100948E-025
  -4.1400000000000006         -3.8411316635721556E-025
  -4.0800000000000018         -2.8349016743351608E-025
  -4.0199999999999996         -1.5599171826124315E-025
  -3.9600000000000009         -7.4528328558212727E-028
  -3.9000000000000021          1.8242658550550733E-025
  -3.8399999999999999          3.9288087302669217E-025
  -3.7800000000000011          6.2903357985769613E-025
  -3.7200000000000024          8.8824673852801386E-025
  -3.6600000000000001          1.1667286567293020E-024
  -3.6000000000000014          1.4594525567287389E-024
  -3.5399999999999991          1.7600980802794273E-024
  -3.4800000000000004          2.0610230700348103E-024
  -3.4200000000000017          2.3532695424662861E-024
  -3.3599999999999994          2.6266096777346791E-024
  -3.3000000000000007          2.8696388911742154E-024
  -3.2400000000000020          3.0699171022735160E-024
  -3.1799999999999997          3.2141657854816266E-024
  -3.1200000000000010          3.2885216669564253E-024
  -3.0600000000000023          3.2788489998902480E-024
  -3.0000000000000000          3.1711104388668760E-024
  -2.9400000000000013          2.9517967715819928E-024
  -2.8800000000000026          2.6084092769058581E-024
  -2.8200000000000003          2.1299916678021239E-024
  -2.7600000000000016          1.5077023667700632E-024
  -2.6999999999999993          7.3541787377627260E-025
  -2.6400000000000006         -1.8964599485285614E-025
  -2.5800000000000018         -1.2663114328800309E-024
  -2.5199999999999996         -2.4888294749053591E-024
  -2.4600000000000009         -3.8463059850077682E-024
  -2.4000000000000021         -5.3221850112204980E-024
  -2.3399999999999999         -6.8938122274695162E-024
  -2.2800000000000011         -8.5321051655321163E-024
  -2.2200000000000024         -1.0201354567583288E-023
  -2.1600000000000001         -1.1859180551087199E-023
  -2.1000000000000014         -1.3456678506684061E-023
  -2.0399999999999991         -1.4938765288574967E-023
  -1.9800000000000004         -1.6244759322391121E-023
  -1.9200000000000017         -1.7309210504812448E-023
  -1.8599999999999994         -1.8062987071794618E-023
  -1.8000000000000007         -1.8434637328503389E-023
  -1.7400000000000020         -1.8352031976817664E-023
  -1.6799999999999997         -1.7744273343895676E-023
  -1.6200000000000010         -1.6543860790731317E-023
  -1.5600000000000023         -1.4689102852926279E-023
  -1.5000000000000000         -1.2126727875673974E-023
  -1.4400000000000013         -8.8146628938454187E-024
  -1.3800000000000026         -4.7249281324480974E-024
  -1.3200000000000003          1.5341879466882140E-025
  -1.2600000000000016          5.8113656813282467E-024
  -1.1999999999999993          1.2217133581179354E-023
  -1.1400000000000006          1.9313566432444148E-023
  -1.0800000000000018          2.7015815811440985E-023
  -1.0199999999999996          3.5209440669584811E-023
 -0.96000000000000085          4.3749033621649499E-023
 -0.90000000000000213          5.2457464185914328E-023
 -0.83999999999999986          6.1125887046017329E-023
 -0.78000000000000114          6.9514607228385677E-023
 -0.72000000000000242          7.7354888834877878E-023
 -0.66000000000000014          8.4351827710290052E-023
 -0.60000000000000142          9.0188354617547309E-023
 -0.53999999999999915          9.4530388963062332E-023
 -0.48000000000000043          9.7033239824630787E-023
 -0.42000000000000171          9.7349202543077037E-023
 -0.35999999999999943          9.5136339190429227E-023
 -0.30000000000000071          9.0068397648212956E-023
 -0.24000000000000199          8.1845747106793572E-023
 -0.17999999999999972          7.0207186356626842E-023
 -0.12000000000000099          5.4942438477990514E-023
  -6.0000000000002274E-002     3.5905129410916819E-023
   0.0000000000000000          1.3025925906742766E-023
   5.9999999999998721E-002    -1.3674460518001428E-023
  0.11999999999999744         -4.4072734329240569E-023
  0.17999999999999972         -7.7931420558105903E-023
  0.23999999999999844         -1.1488852629291311E-022
  0.30000000000000071         -1.5444900376496041E-022
  0.35999999999999943         -1.9597845192821165E-022
  0.41999999999999815         -2.3869951336457912E-022
  0.48000000000000043         -2.8169144299460712E-022
  0.53999999999999915         -3.2389328946956365E-022
  0.59999999999999787         -3.6411120844851739E-022
  0.66000000000000014         -4.0103002645775616E-022
  0.71999999999999886         -4.3322966536527630E-022
  0.77999999999999758         -4.5920646418713804E-022
  0.83999999999999986         -4.7739953314158195E-022
  0.89999999999999858         -4.8622227386656036E-022
  0.96000000000000085         -4.8409881144681356E-022
   1.0199999999999996         -4.6950520872091278E-022
   1.0799999999999983         -4.4101512296959107E-022
   1.1400000000000006         -3.9734887837970297E-022
   1.1999999999999993         -3.3742608173843864E-022
   1.2599999999999980         -2.6041998373053241E-022
   1.3200000000000003         -1.6581317846288108E-022
   1.3799999999999990         -5.3452784137545991E-023
   1.4399999999999977          7.6395536153899566E-023
   1.5000000000000000          2.2299702899148772E-022
   1.5599999999999987          3.8510190518283013E-022
   1.6199999999999974          5.6090620735561834E-022
   1.6799999999999997          7.4802061490790111E-022
   1.7399999999999984          9.4344995942978853E-022
   1.8000000000000007          1.1435846299043794E-021
   1.8599999999999994          1.3442058937027421E-021
   1.9199999999999982          1.5405067646501850E-021
   1.9800000000000004          1.7271300527851869E-021
   2.0399999999999991          1.8982245105264101E-021
   2.0999999999999979          2.0475205910041622E-021
   2.1600000000000001          2.1684261691665333E-021
   2.2199999999999989          2.2541421789234006E-021
   2.2799999999999976          2.2977993810968481E-021
   2.3399999999999999          2.2926126914946494E-021
   2.3999999999999986          2.2320552322050443E-021
   2.4599999999999973          2.1100481687269111E-021
   2.5199999999999996          1.9211633593240220E-021
   2.5799999999999983          1.6608378988342861E-021
   2.6400000000000006          1.3255950778217272E-021
   2.6999999999999993          9.1326789345220609E-022
   2.7599999999999980          4.2321946365087227E-022
   2.8200000000000003         -1.4344366012383962E-022
   2.8799999999999990         -7.8367258614927001E-022
   2.9399999999999977         -1.4922971694957961E-021
   3.0000000000000000         -2.2618755664275954E-021
   3.0599999999999987         -3.0825760604432538E-021
   3.1199999999999974         -3.9421014542775591E-021
   3.1799999999999997         -4.8256597336823192E-021
   3.2399999999999984         -5.7159909779495277E-021
   3.3000000000000007         -6.5934521354070215E-021
   3.3599999999999994         -7.4361703241994026E-021
   3.4199999999999982         -8.2202637804432282E-021
   3.4800000000000004         -8.9201387330978336E-021
   3.5399999999999991         -9.5088601836509114E-021
   3.5999999999999979         -9.9585996074613604E-021
   3.6600000000000001         -1.0241159356644594E-020
   3.7199999999999989         -1.0328565544100167E-020
   3.7799999999999976         -1.0193732575261752E-020
   3.8399999999999999         -9.8111877007049487E-021
   3.8999999999999986         -9.1578427872323287E-021
   3.9599999999999973         -8.2138096805291032E-021
   4.0199999999999996         -6.9632425455246512E-021
   4.0799999999999983         -5.3951850949766384E-021
   4.1400000000000006         -3.5044156973079946E-021
   4.1999999999999993         -1.2922646039523182E-021
   4.2599999999999980          1.2326227024147854E-021
   4.3200000000000003          4.0535895634253003E-021
   4.3799999999999990          7.1453666317872460E-021
   4.4399999999999977          1.0473593889394668E-020
   4.5000000000000000          1.3994485707739481E-020
   4.5599999999999987          1.7654662869832267E-020
   4.6199999999999974          2.1391177844005885E-020
   4.6799999999999997          2.5131755036310783E-020
   4.7399999999999984          2.8795254873199919E-020
   4.7999999999999972          3.2292400658818238E-020
   4.8599999999999994          3.5526750800778090E-020
   4.9199999999999982          3.8395950417176780E-020
   4.9800000000000004          4.0793252953461613E-020
   5.0399999999999991          4.2609308923015367E-020
   5.0999999999999979          4.3734229389861568E-020
   5.1600000000000001          4.4059871217588326E-020
   5.2199999999999989          4.3482381118475180E-020
   5.2799999999999976          4.1904897821654288E-020
   5.3399999999999999          3.9240451283992702E-020
   5.3999999999999986          3.5414951863499939E-020
   5.4599999999999973          3.0370251136128558E-020
   5.5199999999999996          2.4067213468029949E-020
   5.5799999999999983          1.6488724434471005E-020
   5.6400000000000006          7.6425764665732521E-021
   5.6999999999999993         -2.4358642485052291E-021
   5.7599999999999980         -1.3681247899702789E-020
   5.8200000000000003         -2.5996212130339834E-020
   5.8799999999999990         -3.9249795244072720E-020
   5.9399999999999977         -5.3276371991236662E-020
   6.0000000000000000         -6.7875196968692698E-020
   6.0599999999999987         -8.2810617339569367E-020
   6.1199999999999974         -9.7813063965321938E-020
   6.1799999999999997         -1.1258082329937130E-019
   6.2399999999999984         -1.2678265865401626E-019
   6.2999999999999972         -1.4006137590165204E-019
   6.3599999999999994         -1.5203822858834562E-019
   6.4199999999999982         -1.6231832820849564E-019
   6.4800000000000004         -1.7049690402928158E-019
   6.5399999999999991         -1.7616645420967436E-019
   6.5999999999999979         -1.7892476316952415E-019
   6.6600000000000001         -1.7838358046871764E-019
   6.7199999999999989         -1.7417801495684379E-019
   6.7799999999999976         -1.6597646156372483E-019
   6.8399999999999999         -1.5349084582103989E-019
   6.8999999999999986         -1.3648715198904463E-019
   6.9599999999999973         -1.1479589108076125E-019
   7.0199999999999996         -8.8322486679937473E-020
   7.0799999999999983         -5.7057159936832767E-020
   7.1400000000000006         -2.1084244025641487E-020
   7.1999999999999993          1.9409475598975330E-020
   7.2599999999999980          6.4127529175984727E-020
   7.3200000000000003          1.1265795211656510E-019
   7.3799999999999990          1.6446917684961558E-019
   7.4399999999999977          2.1890781126693971E-019
   7.5000000000000000          2.7519859519950741E-019
   7.5599999999999987          3.3244676727423455E-019
   7.6199999999999974          3.8964287260521993E-019
   7.6799999999999997          4.4567049506744383E-019
   7.7399999999999984          4.9931667255333336E-019
   7.7999999999999972          5.4928536077835383E-019
   7.8599999999999994          5.9421371527850384E-019
   7.9199999999999982          6.3269151060984717E-019
   7.9800000000000004          6.6328322119369717E-019
   8.0399999999999991          6.8455286502654924E-019
   8.1000000000000014          6.9509138047985476E-019
   8.1599999999999966          6.9354623682574204E-019
   8.2199999999999989          6.7865288313268773E-019
   8.2800000000000011          6.4926756933134008E-019
   8.3399999999999963          6.0440125125979257E-019
   8.3999999999999986          5.4325385889648778E-019
   8.4600000000000009          4.6524848721115403E-019
   8.5199999999999960          3.7006449472925692E-019
   8.5799999999999983          2.5766942006001601E-019
   8.6400000000000006          1.2834839510656880E-019