  -24.000000000000000          0.0000000000000000     
  -23.940000000000001          0.0000000000000000     
  -23.879999999999999          0.0000000000000000     
  -23.820000000000000          0.0000000000000000     
  -23.760000000000002          0.0000000000000000     
  -23.699999999999999          0.0000000000000000     
  -23.640000000000001          0.0000000000000000     
  -23.579999999999998          0.0000000000000000     
  -23.520000000000000          0.0000000000000000     
  -23.460000000000001          0.0000000000000000     
  -23.399999999999999          0.0000000000000000     
  -23.340000000000000          0.0000000000000000     
  -23.280000000000001          0.0000000000000000     
  -23.219999999999999          0.0000000000000000     
  -23.160000000000000          0.0000000000000000     
  -23.100000000000001          0.0000000000000000     
  -23.039999999999999          0.0000000000000000     
  -22.980000000000000          0.0000000000000000     
  -22.920000000000002          0.0000000000000000     
  -22.859999999999999          0.0000000000000000     
  -22.800000000000001          0.0000000000000000     
  -22.739999999999998          0.0000000000000000     
  -22.680000000000000          0.0000000000000000     
  -22.620000000000001          0.0000000000000000     
  -22.559999999999999          0.0000000000000000     
  -22.500000000000000          0.0000000000000000     
  -22.440000000000001          0.0000000000000000     
  -22.379999999999999          0.0000000000000000     
  -22.320000000000000          0.0000000000000000     
  -22.260000000000002          0.0000000000000000     
  -22.199999999999999          0.0000000000000000     
  -22.140000000000001          0.0000000000000000     
  -22.079999999999998          0.0000000000000000     
  -22.020000000000000          0.0000000000000000     
  -21.960000000000001          0.0000000000000000     
  -21.899999999999999          0.0000000000000000     
  -21.840000000000000          0.0000000000000000     
  -21.780000000000001          0.0000000000000000     
  -21.719999999999999          0.0000000000000000     
  -21.660000000000000          0.0000000000000000     
  -21.600000000000001          0.0000000000000000     
  -21.539999999999999          0.0000000000000000     
  -21.480000000000000          0.0000000000000000     
  -21.420000000000002          0.0000000000000000     
  -21.359999999999999          0.0000000000000000     
  -21.300000000000001          0.0000000000000000     
  -21.240000000000002          0.0000000000000000     
  -21.180000000000000          0.0000000000000000     
  -21.120000000000001          0.0000000000000000     
  -21.059999999999999         -4.2582668249134443E-041
  -21.000000000000000         -1.2771178344338659E-040
  -20.940000000000001         -2.7236200900089065E-040
  -20.879999999999999         -4.6503963583701350E-040
  -20.820000000000000         -7.0139752237043881E-040
  -20.760000000000002         -1.0490715029784300E-039
  -20.699999999999999         -1.7141367718759091E-039
  -20.640000000000001         -2.6181277818934418E-039
  -20.579999999999998         -3.0262846517697153E-039
  -20.520000000000000         -2.8988291792196355E-039
  -20.460000000000001         -2.3647484927189691E-039
  -20.399999999999999         -1.5770549923530124E-039
  -20.340000000000000         -4.3003737924851346E-040
  -20.280000000000001          1.2193332103898880E-039
  -20.219999999999999          5.4719776944136513E-039
  -20.160000000000000          1.2956458603336847E-038
  -20.100000000000001          2.1106199709194866E-038
  -20.039999999999999          3.0368378512923385E-038
  -19.980000000000000          4.1372872155984592E-038
  -19.920000000000002          5.4180333431396654E-038
  -19.859999999999999          6.9282682757970843E-038
  -19.800000000000001          8.7254252598775017E-038
  -19.740000000000002          1.0873732787755584E-037
  -19.680000000000000          1.3442379759947437E-037
  -19.620000000000001          1.6465659359753796E-037
  -19.560000000000002          1.9956236923591218E-037
  -19.500000000000000          2.3675155507238366E-037
  -19.440000000000001          2.7578787255360100E-037
  -19.379999999999999          3.1280463675288841E-037
  -19.320000000000000          3.4394167415739454E-037
  -19.259999999999998          3.6662868079159243E-037
  -19.199999999999999          3.7200447556762859E-037
  -19.140000000000001          3.5368126932259541E-037
  -19.079999999999998          2.9984631845354712E-037
  -19.020000000000000          1.9588136127126794E-037
  -18.960000000000001          1.7745665377158839E-038
  -18.899999999999999         -2.5157315458691645E-037
  -18.840000000000000         -6.2742606812715454E-037
  -18.780000000000001         -1.1095816884199420E-036
  -18.719999999999999         -1.7057600034866754E-036
  -18.660000000000000         -2.4612218357978129E-036
  -18.600000000000001         -3.3834519846714073E-036
  -18.539999999999999         -4.4692036153867311E-036
  -18.480000000000000         -5.7071862407600761E-036
  -18.420000000000002         -7.0543103944901873E-036
  -18.359999999999999         -8.4443987068123194E-036
  -18.300000000000001         -9.7923779921799053E-036
  -18.240000000000002         -1.0966603000750269E-035
  -18.180000000000000         -1.1782025870873882E-035
  -18.120000000000001         -1.2002731442395187E-035
  -18.060000000000002         -1.1329748163323729E-035
  -18.000000000000000         -9.3933990375759759E-036
  -17.940000000000001         -5.7877453579564821E-036
  -17.879999999999999         -1.4664986649546153E-037
  -17.820000000000000          7.9867864236131932E-036
  -17.759999999999998          1.9074421498870984E-035
  -17.699999999999999          3.3549330452809443E-035
  -17.640000000000001          5.1755949287173683E-035
  -17.579999999999998          7.3913937126148462E-035
  -17.520000000000000          1.0004164198442347E-034
  -17.460000000000001          1.2985428925068305E-034
  -17.399999999999999          1.6266883285957607E-034
  -17.340000000000000          1.9729247198316928E-034
  -17.280000000000001          2.3190271709770878E-034
  -17.219999999999999          2.6391989452370800E-034
  -17.160000000000000          2.8991420732925117E-034
  -17.100000000000001          3.0548767110616854E-034
  -17.039999999999999          3.0524866476256217E-034
  -16.980000000000000          2.8282395172477887E-034
  -16.920000000000002          2.3085764941354905E-034
  -16.859999999999999          1.4115004231404549E-034
  -16.800000000000001          4.9476723912012545E-036
  -16.740000000000002         -1.8666070495932324E-034
  -16.680000000000000         -4.4219279810791711E-034
  -16.620000000000001         -7.6903887266371929E-034
  -16.560000000000002         -1.1725450796760068E-033
  -16.500000000000000         -1.6548898872862252E-033
  -16.440000000000001         -2.2137669888819410E-033
  -16.379999999999999         -2.8409057607387014E-033
  -16.320000000000000         -3.5204435813136458E-033
  -16.260000000000002         -4.2272437603525577E-033
  -16.199999999999999         -4.9252047668054876E-033
  -16.140000000000001         -5.5657011942029479E-033
  -16.079999999999998         -6.0862957021143576E-033
  -16.020000000000000         -6.4098395704071191E-033
  -15.960000000000001         -6.4442878860059794E-033
  -15.900000000000000         -6.0833257811644577E-033
  -15.840000000000000         -5.2081266479362333E-033
  -15.780000000000001         -3.6904735661788934E-033
  -15.720000000000001         -1.3975010449594355E-033
  -15.660000000000000          1.8016844935231344E-033
  -15.600000000000000          6.0273339570666082E-033
  -15.540000000000001          1.1378175003651778E-032
  -15.480000000000000          1.7918288820186715E-032
  -15.420000000000000          2.5661794633012329E-032
  -15.359999999999999          3.4555581142225669E-032
  -15.300000000000001          4.4460491411499624E-032
  -15.240000000000000          5.5131579023779384E-032
  -15.180000000000000          6.6198292111361805E-032
  -15.120000000000001          7.7145753196119367E-032
  -15.060000000000000          8.7298517775855006E-032
  -15.000000000000000          9.5808519123307241E-032
  -14.940000000000000          1.0164917778006219E-031
  -14.880000000000001          1.0361785346235137E-031
  -14.820000000000000          1.0034906339375448E-031
  -14.760000000000000          9.0340845960488841E-032
  -14.700000000000001          7.1996852966660683E-032
  -14.640000000000001          4.3686376273358021E-032
  -14.580000000000000          3.8243611324339541E-033
  -14.520000000000000         -4.9027214350225224E-032
  -14.460000000000001         -1.1603588838237694E-031
  -14.400000000000000         -1.9795340733926172E-031
  -14.340000000000000         -2.9495029316348471E-031
  -14.280000000000001         -4.0643326793820245E-031
  -14.220000000000001         -5.3085044236910378E-031
  -14.160000000000000         -6.6549143662238665E-031
  -14.100000000000000         -8.0629096765506623E-031
  -14.040000000000001         -9.4764821852073706E-031
  -13.980000000000000         -1.0822747305179590E-030
  -13.920000000000000         -1.2010881206955600E-030
  -13.860000000000001         -1.2931685383721044E-030
  -13.800000000000001         -1.3457979896261453E-030
  -13.740000000000000         -1.3446041127278361E-030
  -13.680000000000000         -1.2738279391595894E-030
  -13.620000000000001         -1.1167377622780697E-030
  -13.560000000000000         -8.5620609404678221E-031
  -13.500000000000000         -4.7546554581887127E-031
  -13.440000000000001          4.0946622561868156E-032
  -13.380000000000001          7.0605096179090658E-031
  -13.320000000000000          1.5291033880765083E-030
  -13.260000000000000          2.5140996524051930E-030
  -13.200000000000001          3.6581393407073335E-030
  -13.140000000000001          4.9496890017791636E-030
  -13.080000000000000          6.3668071203533602E-030
  -13.020000000000000          7.8754020387253442E-030
  -12.960000000000001          9.4276189762749935E-030
  -12.900000000000000          1.0960466318147088E-029
  -12.840000000000000          1.2394809051399300E-029
  -12.780000000000001          1.3634869825177566E-029
  -12.720000000000001          1.4568393132248229E-029
  -12.660000000000000          1.5067627802279465E-029
  -12.600000000000000          1.4991297776478474E-029
  -12.540000000000001          1.4187702562191418E-029
  -12.480000000000000          1.2499105629548665E-029
  -12.420000000000000          9.7675090068943201E-030
  -12.360000000000001          5.8419011163355556E-030
  -12.300000000000001          5.8701281840477159E-031
  -12.240000000000000         -6.1064691902266490E-030
  -12.180000000000000         -1.4310294819016879E-029
  -12.120000000000001         -2.4045897821136544E-029
  -12.060000000000000         -3.5270742824980318E-029
  -12.000000000000000         -4.7864190707816438E-029
  -11.940000000000001         -6.1613391598585293E-029
  -11.880000000000001         -7.6199865064669636E-029
  -11.820000000000000         -9.1187498466840541E-029
  -11.760000000000000         -1.0601281883495114E-028
  -11.700000000000001         -1.1997856808337561E-028
  -11.640000000000001         -1.3225157170479480E-028
  -11.580000000000000         -1.4186603059000722E-028
  -11.520000000000000         -1.4773343164773212E-028
  -11.460000000000001         -1.4866002369392771E-028
  -11.400000000000000         -1.4337305257474114E-028
  -11.340000000000000         -1.3055656105918581E-028
  -11.280000000000001         -1.0889738153008242E-028
  -11.220000000000001         -7.7141789026985289E-029
  -11.160000000000000         -3.4162941688284395E-029
  -11.100000000000000          2.0961632336168803E-029
  -11.040000000000001          8.8863048699392445E-029
  -10.980000000000000          1.6978631407121976E-028
  -10.920000000000000          2.6348996675013246E-028
  -10.860000000000001          3.6914311620585111E-028
  -10.800000000000001          4.8522326038898098E-028
  -10.740000000000000          6.0941965360500613E-028
  -10.680000000000000          7.3854710388422168E-028
  -10.620000000000001          8.6847599864700048E-028
  -10.560000000000000          9.9408552490338333E-028
  -10.500000000000000          1.1092461935156632E-027
  -10.440000000000001          1.2068396088177392E-027
  -10.380000000000001          1.2788217943406845E-027
  -10.320000000000000          1.3163383863453378E-027
  -10.260000000000000          1.3098968726570606E-027
  -10.200000000000001          1.2496021106595114E-027
  -10.140000000000001          1.1254587931164190E-027
  -10.080000000000000          9.2774448671854563E-028
  -10.020000000000001          6.4745128712098804E-028
  -9.9600000000000009          2.7679629474742481E-028
  -9.9000000000000004         -1.9020729737421374E-028
  -9.8399999999999999         -7.5712638786532864E-028
  -9.7800000000000011         -1.4244436771475068E-027
  -9.7200000000000006         -2.1888724562492119E-027
  -9.6600000000000001         -3.0426700996107874E-027
  -9.6000000000000014         -3.9729775085166396E-027
  -9.5400000000000009         -4.9612152738051408E-027
  -9.4800000000000004         -5.9825682483822458E-027
  -9.4199999999999999         -7.0056005439285318E-027
  -9.3600000000000012         -7.9920388689713542E-027
  -9.3000000000000007         -8.8967680525279437E-027
  -9.2400000000000002         -9.6680787229480401E-027
  -9.1799999999999997         -1.0248215589145410E-026
  -9.1200000000000010         -1.0574257890882071E-026
  -9.0600000000000005         -1.0579373070363135E-026
  -9.0000000000000000         -1.0194468038119113E-026
  -8.9400000000000013         -9.3502576706729149E-027
  -8.8800000000000008         -7.9797571154523202E-027
  -8.8200000000000003         -6.0211961619903499E-027
  -8.7599999999999998         -3.4213238813539091E-027
  -8.7000000000000011         -1.3906783519305169E-028
  -8.6400000000000006          3.8505211903430611E-027
  -8.5800000000000001          8.5521116890805304E-027
  -8.5200000000000014          1.3945842739948052E-026
  -8.4600000000000009          1.9983113308071237E-026
  -8.4000000000000004          2.6582553618052968E-026
  -8.3399999999999999          3.3626381768029277E-026
  -8.2800000000000011          4.0957319537584990E-026
  -8.2200000000000006          4.8376305534878457E-026
  -8.1600000000000001          5.5641206947619791E-026
  -8.1000000000000014          6.2466810259030152E-026
  -8.0400000000000009          6.8526277829217320E-026
  -7.9800000000000004          7.3454330754146418E-026
  -7.9200000000000017          7.6852381137042157E-026
  -7.8599999999999994          7.8295751572088635E-026
  -7.8000000000000007          7.7343191750778602E-026
  -7.7400000000000020          7.3548727257220606E-026
  -7.6799999999999997          6.6475901169887943E-026
  -7.6200000000000010          5.5714395774747980E-026
  -7.5600000000000023          4.0898840117700083E-026
  -7.5000000000000000          2.1729679419170847E-026
  -7.4400000000000013         -2.0043761144275215E-027
  -7.3799999999999990         -3.0402603418833185E-026
  -7.3200000000000003         -6.3427896466847398E-026
  -7.2600000000000016         -1.0088241375542844E-025
  -7.1999999999999993         -1.4238410370373258E-025
  -7.1400000000000006         -1.8734496135802222E-025
  -7.0800000000000018         -2.3495205125969972E-025
  -7.0199999999999996         -2.8415248994668045E-025
  -6.9600000000000009         -3.3364345329250631E-025
  -6.9000000000000021         -3.8186858514202511E-025
  -6.8399999999999999         -4.2702183531990646E-025
  -6.7800000000000011         -4.6706002958110452E-025
  -6.7199999999999989         -4.9972542671892858E-025
  -6.6600000000000001         -5.2257902274407860E-025
  -6.6000000000000014         -5.3304557714849245E-025
  -6.5399999999999991         -5.2847091493562234E-025
  -6.4800000000000004         -5.0619197275282239E-025
  -6.4200000000000017         -4.6361915163899238E-025
  -6.3599999999999994         -3.9833119045901491E-025
  -6.3000000000000007         -3.0818077083905689E-025
  -6.2400000000000020         -1.9141068283525846E-025
  -6.1799999999999997         -4.6777467099265841E-026
  -6.1200000000000010          1.2631923553343228E-025
  -6.0600000000000023          3.2770486492546610E-025
  -6.0000000000000000          5.5629937730014639E-025
  -5.9400000000000013          8.0999198119260244E-025
  -5.8799999999999990          1.0855259884960759E-024
  -5.8200000000000003          1.3783993152733866E-024
  -5.7600000000000016          1.6827845898860222E-024
  -5.6999999999999993          1.9914777713423733E-024
  -5.6400000000000006          2.2958778224286861E-024
  -5.5800000000000018          2.5860062165761046E-024
  -5.5199999999999996          2.8505701978237715E-024
  -5.4600000000000009          3.0770755152249196E-024
  -5.4000000000000021          3.2519953143001012E-024
  -5.3399999999999999          3.3609957575560461E-024
  -5.2800000000000011          3.3892245344780716E-024
  -5.2200000000000024          3.3216614285544067E-024
  -5.1600000000000001          3.1435313493350764E-024
  -5.1000000000000014          2.8407796674011150E-024
  -5.0399999999999991          2.4006031580221166E-024
  -4.9800000000000004          1.8120321540566365E-024
  -4.9200000000000017          1.0665543067934607E-024
  -4.8599999999999994          1.5876853852307324E-025
  -4.8000000000000007         -9.1294255262784401E-025
  -4.7400000000000020         -2.1457429838323495E-024
  -4.6799999999999997         -3.5316886906543206E-024
  -4.6200000000000010         -5.0571169249324986E-024
  -4.5600000000000023         -6.7020960496518058E-024
  -4.5000000000000000         -8.4399682929141531E-024
  -4.4400000000000013         -1.0237005555045400E-023
  -4.3799999999999990         -1.2052210150705428E-023
  -4.3200000000000003         -1.3837286965987883E-023
  -4.2600000000000016         -1.5536818105933848E-023
  -4.1999999999999993         -1.7088653915740818E-023
  -4.1400000000000006         -1.8424561849309686E-023
  -4.0800000000000018         -1.9471140416407787E-023
  -4.0199999999999996         -2.0151020255696857E-023
  -3.9600000000000009         -2.0384357990408976E-023
  -3.9000000000000021         -2.0090635391367075E-023
  -3.8399999999999999         -1.9190753041428475E-023
  -3.7800000000000011         -1.7609411220996800E-023
  -3.7200000000000024         -1.5277755593772865E-023
  -3.6600000000000001         -1.2136267029322511E-023
  -3.6000000000000014         -8.1378237929459032E-024
  -3.5399999999999991         -3.2509275915842304E-024
  -3.4800000000000004          2.5370095997999475E-024
  -3.4200000000000017          9.2163748185117678E-024
  -3.3599999999999994          1.6752150546609363E-023
  -3.3000000000000007          2.5080888169751554E-023
  -3.2400000000000020          3.4107979336579774E-023
  -3.1799999999999997          4.3705326755291027E-023
  -3.1200000000000010          5.3709542263585568E-023
  -3.0600000000000023          6.3920791993990885E-023
  -3.0000000000000000          7.4102403797955566E-023
  -2.9400000000000013          8.3981387869508036E-023
  -2.8800000000000026          9.3249970595702839E-023
  -2.8200000000000003          1.0156823369681052E-022
  -2.7600000000000016          1.0856797594331376E-022
  -2.6999999999999993          1.1385789675401459E-022
  -2.6400000000000006          1.1703011864049042E-022
  -2.5800000000000018          1.1766807289808975E-022
  -2.5199999999999996          1.1535583285237374E-022
  -2.4600000000000009          1.0968875396809723E-022
  -2.4000000000000021          1.0028539950161506E-022
  -2.3399999999999999          8.6800685346940882E-023
  -2.2800000000000011          6.8939975509532542E-023
  -2.2200000000000024          4.6474044670223989E-023
  -2.1600000000000001          1.9254571322837830E-023
  -2.1000000000000014         -1.2770095810686050E-023
  -2.0399999999999991         -4.9539289686107662E-023
  -1.9800000000000004         -9.0864824160401084E-023
  -1.9200000000000017         -1.3641673883358559E-022
  -1.8599999999999994         -1.8571046815257862E-022
  -1.8000000000000007         -2.3809584236996405E-022
  -1.7400000000000020         -2.9274857959474791E-022
  -1.6799999999999997         -3.4866486647432367E-022
  -1.6200000000000010         -4.0465924326251742E-022
  -1.5600000000000023         -4.5936676389374175E-022
  -1.5000000000000000         -5.1124969110313615E-022
  -1.4400000000000013         -5.5860939340632972E-022
  -1.3800000000000026         -5.9960347992386802E-022
  -1.3200000000000003         -6.3226913071376662E-022
  -1.2600000000000016         -6.5455238258749457E-022
  -1.1999999999999993         -6.6434388532770703E-022
  -1.1400000000000006         -6.5952086987873042E-022
  -1.0800000000000018         -6.3799528082630588E-022
  -1.0199999999999996         -5.9776844810120568E-022
 -0.96000000000000085         -5.3699055826695721E-022
 -0.90000000000000213         -4.5402588956257942E-022
 -0.83999999999999986         -3.4752137967357122E-022
 -0.78000000000000114         -2.1647901390775017E-022
 -0.72000000000000242         -6.0329957760333644E-023
 -0.66000000000000014          1.2099109691175801E-022
 -0.60000000000000142          3.2697244541526298E-022
 -0.53999999999999915          5.5645490532443671E-022
 -0.48000000000000043          8.0756636627135792E-022
 -0.42000000000000171          1.0776632452925273E-021
 -0.35999999999999943          1.3632818868031063E-021
 -0.30000000000000071          1.6601008963679208E-021
 -0.24000000000000199          1.9629183522274907E-021
 -0.17999999999999972          2.2656451875461731E-021
 -0.12000000000000099          2.5613180696240383E-021
  -6.0000000000002274E-002     2.8421334575084448E-021
   0.0000000000000000          3.0995046008775490E-021
   5.9999999999998721E-002     3.3241442198980329E-021
  0.11999999999999744          3.5061748465519459E-021
  0.17999999999999972          3.6352657581058803E-021
  0.23999999999999844          3.7007995446487521E-021
  0.30000000000000071          3.6920686938961022E-021
  0.35999999999999943          3.5984987696994466E-021
  0.41999999999999815          3.4099011625142265E-021
  0.48000000000000043          3.1167515056965339E-021
  0.53999999999999915          2.7104898064377207E-021
  0.59999999999999787          2.1838421879613291E-021
  0.66000000000000014          1.5311577070220006E-021
  0.71999999999999886          7.4875476711582998E-022
  0.77999999999999758         -1.6472614927707181E-022
  0.83999999999999986         -1.2079748108699888E-021
  0.89999999999999858         -2.3766714919944244E-021
  0.96000000000000085         -3.6631683529381165E-021
   1.0199999999999996         -5.0561975320934602E-021
   1.0799999999999983         -6.5406189706857140E-021
   1.1400000000000006         -8.0972151184465065E-021
   1.1999999999999993         -9.7025451733686321E-021
   1.2599999999999980         -1.1328871690315434E-020
   1.3200000000000003         -1.2944163329187981E-020
   1.3799999999999990         -1.4512194672674480E-020
   1.4399999999999977         -1.5992742190583973E-020
   1.5000000000000000         -1.7341894479375701E-020
   1.5599999999999987         -1.8512475776490985E-020
   1.6199999999999974         -1.9454599510748053E-020
   1.6799999999999997         -2.0116347744694010E-020
   1.7399999999999984         -2.0444583701767387E-020
   1.8000000000000007         -2.0385891778005456E-020
   1.8599999999999994         -1.9887656329099721E-020
   1.9199999999999982         -1.8899256971007320E-020
   1.9800000000000004         -1.7373389720596162E-020
   2.0399999999999991         -1.5267470372977097E-020
   2.0999999999999979         -1.2545151521296168E-020
   2.1600000000000001         -9.1778952023404295E-021
   2.2199999999999989         -5.1465844396239512E-021
   2.2799999999999976         -4.4316781151753723E-022
   2.3399999999999999          4.9277219569141446E-021
   2.3999999999999986          1.0947187441445842E-020
   2.4599999999999973          1.7580574546100651E-020
   2.5199999999999996          2.4776117007275343E-020
   2.5799999999999983          3.2463730877319512E-020
   2.6400000000000006          4.0554036915567488E-020
   2.6999999999999993          4.8937637927738432E-020
   2.7599999999999980          5.7484722743029125E-020
   2.8200000000000003          6.6044989522006147E-020
   2.8799999999999990          7.4448008583363332E-020
   2.9399999999999977          8.2503998981913279E-020
   3.0000000000000000          9.0005104654509174E-020
   3.0599999999999987          9.6727189904077033E-020
   3.1199999999999974          1.0243217716087448E-019
   3.1799999999999997          1.0687094429012599E-019
   3.2399999999999984          1.0978682053281019E-019
   3.3000000000000007          1.1091966899196723E-019
   3.3599999999999994          1.1001051280381085E-019
   3.4199999999999982          1.0680677773064294E-019
   3.4800000000000004          1.0106798710872881E-019
   3.5399999999999991          9.2571994150373967E-020
   3.5999999999999979          8.1121593275635846E-020
   3.6600000000000001          6.6551501632108576E-020
   3.7199999999999989          4.8735536348643075E-020
   3.7799999999999976          2.7593977728385241E-020
   3.8399999999999999          3.1008969812905748E-021
   3.8999999999999986         -2.4708628051228203E-020
   3.9599999999999973         -5.5731527908229239E-020
   4.0199999999999996         -8.9790350018625012E-020
   4.0799999999999983         -1.2662728560335549E-019
   4.1400000000000006         -1.6589916772246649E-019
   4.1999999999999993         -2.0717348482094969E-019
   4.2599999999999980         -2.4992540528554030E-019
   4.3200000000000003         -2.9353638221763887E-019
   4.3799999999999990         -3.3729428169030705E-019
   4.4399999999999977         -3.8039525506152153E-019
   4.5000000000000000         -4.2194758793180499E-019
   4.5599999999999987         -4.6097755655297164E-019
   4.6199999999999974         -4.9643762435252444E-019
   4.6799999999999997         -5.2721685993504213E-019
   4.7399999999999984         -5.5215395485100330E-019
   4.7999999999999972         -5.7005235700863894E-019
   4.8599999999999994         -5.7969821751377055E-019
   4.9199999999999982         -5.7988048443212767E-019
   4.9800000000000004         -5.6941344443131914E-019
   5.0399999999999991         -5.4716130847197817E-019
   5.0999999999999979         -5.1206495559161046E-019
   5.1600000000000001         -4.6317007224780990E-019
   5.2199999999999989         -3.9965702541380847E-019
   5.2799999999999976         -3.2087145854967742E-019
   5.3399999999999999         -2.2635542623520099E-019
   5.3999999999999986         -1.1587888904148456E-019
   5.4599999999999973          1.0529652469589337E-020
   5.5199999999999996          1.5255329918278134E-019
   5.5799999999999983          3.0955898813810032E-019
   5.6400000000000006          4.8057192046381776E-019
   5.6999999999999993          6.6425322375543181E-019
   5.7599999999999980          8.5888153447571139E-019
   5.8200000000000003          1.0623395635576406E-018
   5.8799999999999990          1.2721052490394629E-018
   5.9399999999999977          1.4852500975807667E-018
   6.0000000000000000          1.6984436936149174E-018
   6.0599999999999987          1.9079658059959204E-018
   6.1199999999999974          2.1097271556041774E-018
   6.1799999999999997          2.2992983754031969E-018
   6.2399999999999984          2.4719478747746445E-018
   6.2999999999999972          2.6226898554991274E-018
   6.3599999999999994          2.7463409034253205E-018
   6.4199999999999982          2.8375871266574578E-018
   6.4800000000000004          2.8910605502056179E-018
   6.5399999999999991          2.9014243910079265E-018
   6.5999999999999979          2.8634678076379169E-018
   6.6600000000000001          2.7722073956464349E-018
   6.7199999999999989          2.6229979078855418E-018
   6.7799999999999976          2.4116468868242033E-018
   6.8399999999999999          2.1345353621625618E-018
   6.8999999999999986          1.7887417752518771E-018
   6.9599999999999973          1.3721667131829323E-018
   7.0199999999999996          8.8365805624521753E-019
   7.0799999999999983          3.2313337855055765E-019
   7.1400000000000006         -3.0830357694702367E-019
   7.1999999999999993         -1.0082514219420390E-018
   7.2599999999999980         -1.7729122055818180E-018
   7.3200000000000003         -2.5970019337868246E-018
   7.3799999999999990         -3.4736798694401390E-018
   7.4399999999999977         -4.3944918398649102E-018
   7.5000000000000000         -5.3493383306279354E-018
   7.5599999999999987         -6.3264611464674830E-018
   7.6199999999999974         -7.3124597956076722E-018
   7.6799999999999997         -8.2923350497815975E-018
   7.7399999999999984         -9.2495617072754261E-018
   7.7999999999999972         -1.0166193774318077E-017
   7.8599999999999994         -1.1023003743415432E-017
   7.9199999999999982         -1.1799656439682835E-017
   7.9800000000000004         -1.2474917201583484E-017
   8.0399999999999991         -1.3026898971694646E-017
   8.1000000000000014         -1.3433338660369345E-017
   8.1599999999999966         -1.3671913692010854E-017
   8.2199999999999989         -1.3720584861623242E-017
   8.2800000000000011         -1.3557978796591993E-017
   8.3399999999999963         -1.3163783907761076E-017
   8.3999999999999986         -1.2519183191840427E-017
   8.4600000000000009         -1.1607300764943015E-017
   8.5199999999999960         -1.0413656034711066E-017
   8.5799999999999983         -8.9266410446401887E-018
   8.6400000000000006         -7.1379831424271315E-018