  -24.000000000000000          0.0000000000000000     
  -23.940000000000001          0.0000000000000000     
  -23.879999999999999          0.0000000000000000     
  -23.820000000000000          0.0000000000000000     
  -23.760000000000002          0.0000000000000000     
  -23.699999999999999          0.0000000000000000     
  -23.640000000000001          0.0000000000000000     
  -23.579999999999998          0.0000000000000000     
  -23.520000000000000          0.0000000000000000     
  -23.460000000000001          0.0000000000000000     
  -23.399999999999999          0.0000000000000000     
  -23.340000000000000          0.0000000000000000     
  -23.280000000000001          0.0000000000000000     
  -23.219999999999999          0.0000000000000000     
  -23.160000000000000          0.0000000000000000     
  -23.100000000000001          0.0000000000000000     
  -23.039999999999999          0.0000000000000000     
  -22.980000000000000          0.0000000000000000     
  -22.920000000000002          0.0000000000000000     
  -22.859999999999999          0.0000000000000000     
  -22.800000000000001          0.0000000000000000     
  -22.739999999999998          0.0000000000000000     
  -22.680000000000000          0.0000000000000000     
  -22.620000000000001          0.0000000000000000     
  -22.559999999999999          0.0000000000000000     
  -22.500000000000000          0.0000000000000000     
  -22.440000000000001          0.0000000000000000     
  -22.379999999999999          0.0000000000000000     
  -22.320000000000000          0.0000000000000000     
  -22.260000000000002          0.0000000000000000     
  -22.199999999999999          0.0000000000000000     
  -22.140000000000001          0.0000000000000000     
  -22.079999999999998         -4.0790197422695209E-039
  -22.020000000000000         -1.2516211189800135E-038
  -21.960000000000001         -2.5370664803702802E-038
  -21.899999999999999         -6.6280727184451390E-038
  -21.840000000000000         -1.1460698196280140E-037
  -21.780000000000001         -1.7589009839195827E-037
  -21.719999999999999         -2.5959617105375127E-037
  -21.660000000000000         -3.8130207210666883E-037
  -21.600000000000001         -5.6590244396465735E-037
  -21.539999999999999         -8.6934548803157761E-037
  -21.480000000000000         -1.3427535847686441E-036
  -21.420000000000002         -2.0734208168592954E-036
  -21.359999999999999         -3.2342807656586805E-036
  -21.300000000000001         -4.9875822371354743E-036
  -21.240000000000002         -7.5986229522208698E-036
  -21.180000000000000         -1.1443022301119794E-035
  -21.120000000000001         -1.7040154814096360E-035
  -21.059999999999999         -2.5042968579562320E-035
  -21.000000000000000         -3.6334339178763145E-035
  -20.940000000000001         -5.2035104207515706E-035
  -20.879999999999999         -7.3590384987970440E-035
  -20.820000000000000         -1.0273549380212875E-034
  -20.760000000000002         -1.4152260275341297E-034
  -20.699999999999999         -1.9229877698875797E-034
  -20.640000000000001         -2.5757783193657992E-034
  -20.579999999999998         -3.3997749511937607E-034
  -20.520000000000000         -4.4193993217421652E-034
  -20.460000000000001         -5.6536195480077861E-034
  -20.399999999999999         -7.1099912394548498E-034
  -20.340000000000000         -8.7785682066028597E-034
  -20.280000000000001         -1.0621977839339087E-033
  -20.219999999999999         -1.2563394266901150E-033
  -20.160000000000000         -1.4472078447422154E-033
  -20.100000000000001         -1.6146750702497501E-033
  -20.039999999999999         -1.7296335604532568E-033
  -19.980000000000000         -1.7519989658624138E-033
  -19.920000000000002         -1.6287065985119015E-033
  -19.859999999999999         -1.2919259969404012E-033
  -19.800000000000001         -6.5779805861181466E-034
  -19.740000000000002          3.7391061635269029E-034
  -19.680000000000000          1.9188592074862489E-033
  -19.620000000000001          4.1051859802019161E-033
  -19.560000000000002          7.0679617688150457E-033
  -19.500000000000000          1.0940259053736505E-032
  -19.440000000000001          1.5840100910654507E-032
  -19.379999999999999          2.1852359661541118E-032
  -19.320000000000000          2.9005054105549337E-032
  -19.259999999999998          3.7239423637006719E-032
  -19.199999999999999          4.6373538962489981E-032
  -19.140000000000001          5.6059619142981432E-032
  -19.079999999999998          6.5735877800440768E-032
  -19.020000000000000          7.4574505109092723E-032
  -18.960000000000001          8.1428312614152643E-032
  -18.899999999999999          8.4779912619493639E-032
  -18.840000000000000          8.2698469152003931E-032
  -18.780000000000001          7.2810851977516714E-032
  -18.719999999999999          5.2295292488984891E-032
  -18.660000000000000          1.7907539557608541E-032
  -18.600000000000001         -3.3949240286533586E-032
  -18.539999999999999         -1.0709836916564497E-031
  -18.480000000000000         -2.0539428054317415E-031
  -18.420000000000002         -3.3244471355210584E-031
  -18.359999999999999         -4.9123870384515741E-031
  -18.300000000000001         -6.8367082582272032E-031
  -18.240000000000002         -9.0995596533895488E-031
  -18.180000000000000         -1.1679347702317585E-030
  -18.120000000000001         -1.4522776207850123E-030
  -18.060000000000002         -1.7536063475203257E-030
  -18.000000000000000         -2.0575629785378228E-030
  -17.940000000000001         -2.3438722011318686E-030
  -17.879999999999999         -2.5854604772371523E-030
  -17.820000000000000         -2.7477120274136961E-030
  -17.759999999999998         -2.7879634401809750E-030
  -17.699999999999999         -2.6553574073777919E-030
  -17.640000000000001         -2.2911934890184256E-030
  -17.579999999999998         -1.6299315686278368E-030
  -17.520000000000000         -6.0100995260951985E-031
  -17.460000000000001          8.6835087159336977E-031
  -17.399999999999999          2.8492061497058040E-030
  -17.340000000000000          5.4056546654914455E-030
  -17.280000000000001          8.5882185428980986E-030
  -17.219999999999999          1.2425782197223670E-029
  -17.160000000000000          1.6916102322348218E-029
  -17.100000000000001          2.2015020653426137E-029
  -17.039999999999999          2.7624589150554891E-029
  -16.980000000000000          3.3580524528073565E-029
  -16.920000000000002          3.9639479360293808E-029
  -16.859999999999999          4.5466920207474952E-029
  -16.800000000000001          5.0626478534772557E-029
  -16.740000000000002          5.4571914831737280E-029
  -16.680000000000000          5.6643039918584670E-029
  -16.620000000000001          5.6067041944560573E-029
  -16.560000000000002          5.1966913066317364E-029
  -16.500000000000000          4.3378674630031248E-029
  -16.440000000000001          2.9279176004486221E-029
  -16.379999999999999          8.6261514204753530E-030
  -16.320000000000000         -1.9587995317074290E-029
  -16.260000000000002         -5.6267488077071989E-029
  -16.199999999999999         -1.0212896179596290E-028
  -16.140000000000001         -1.5760165817115491E-028
  -16.079999999999998         -2.2271298284195500E-028
  -16.020000000000000         -2.9696149986913103E-028
  -15.960000000000001         -3.7918030476376587E-028
  -15.900000000000000         -4.6739580499206101E-028
  -15.840000000000000         -5.5868802856904877E-028
  -15.780000000000001         -6.4906076855495416E-028
  -15.720000000000001         -7.3333076859893979E-028
  -15.660000000000000         -8.0504831617481973E-028
  -15.600000000000000         -8.5646192893334709E-028
  -15.540000000000001         -8.7854174573768884E-028
  -15.480000000000000         -8.6107716498669752E-028
  -15.420000000000000         -7.9286490031515383E-028
  -15.359999999999999         -6.6200271639495282E-028
  -15.300000000000001         -4.5630339981344263E-028
  -15.240000000000000         -1.6384159283967695E-028
  -15.180000000000000          2.2635827032537763E-028
  -15.120000000000001          7.2348866653462807E-028
  -15.060000000000000          1.3339833515438230E-027
  -15.000000000000000          2.0604073064181989E-027
  -14.940000000000000          2.9002354706836758E-027
  -14.880000000000001          3.8445474093218001E-027
  -14.820000000000000          4.8766827511333763E-027
  -14.760000000000000          5.9709101153197466E-027
  -14.700000000000001          7.0911810724758884E-027
  -14.640000000000001          8.1900554306622172E-027
  -14.580000000000000          9.2078855642168240E-027
  -14.520000000000000          1.0072378452588230E-026
  -14.460000000000001          1.0698646440743110E-026
  -14.400000000000000          1.0989879201108137E-026
  -14.340000000000000          1.0838758676216405E-026
  -14.280000000000001          1.0129743738933050E-026
  -14.220000000000001          8.7423412905232416E-027
  -14.160000000000000          6.5554592699970091E-027
  -14.100000000000000          3.4529129878833092E-027
  -14.040000000000001         -6.6987714862372447E-028
  -13.980000000000000         -5.8980083113857966E-027
  -13.920000000000000         -1.2288109297947825E-026
  -13.860000000000001         -1.9858373080070250E-026
  -13.800000000000001         -2.8577835456552787E-026
  -13.740000000000000         -3.8355186881417921E-026
  -13.680000000000000         -4.9027476184727897E-026
  -13.620000000000001         -6.0349303757968131E-026
  -13.560000000000000         -7.1982941925515652E-026
  -13.500000000000000         -8.3490182714403195E-026
  -13.440000000000001         -9.4326617609615343E-026
  -13.380000000000001         -1.0383924354892395E-025
  -13.320000000000000         -1.1126822674337721E-025
  -13.260000000000000         -1.1575380950857365E-025
  -13.200000000000001         -1.1634919869877331E-025
  -13.140000000000001         -1.1204040607533669E-025
  -13.080000000000000         -1.0177369038213338E-025
  -13.020000000000000         -8.4491286882741357E-026
  -12.960000000000001         -5.9175790872283439E-026
  -12.900000000000000         -2.4903342170530643E-026
  -12.840000000000000          1.9094681876142036E-026
  -12.780000000000001          7.3362009773764477E-026
  -12.720000000000001          1.3814103550422915E-025
  -12.660000000000000          2.1329129510305182E-025
  -12.600000000000000          2.9820494089550505E-025
  -12.540000000000001          3.9172232551245204E-025
  -12.480000000000000          4.9205076733135281E-025
  -12.420000000000000          5.9669119130166888E-025
  -12.360000000000001          7.0237684173196904E-025
  -12.300000000000001          8.0502971011171624E-025
  -12.240000000000000          8.9973974687788534E-025
  -12.180000000000000          9.8077400582124914E-025
  -12.120000000000001          1.0416200536338762E-024
  -12.060000000000000          1.0750715751503945E-024
  -12.000000000000000          1.0733600258517992E-024
  -11.940000000000001          1.0283383109157112E-024
  -11.880000000000001          9.3172009925389029E-025
  -11.820000000000000          7.7537726969381556E-025
  -11.760000000000000          5.5169643891327527E-025
  -11.700000000000001          2.5399279384300623E-025
  -11.640000000000001         -1.2302257475181799E-025
  -11.580000000000000         -5.8272764870273668E-025
  -11.520000000000000         -1.1260392726243383E-024
  -11.460000000000001         -1.7508386569888365E-024
  -11.400000000000000         -2.4513911780018064E-024
  -11.340000000000000         -3.2177829416154158E-024
  -11.280000000000001         -4.0353949883893316E-024
  -11.220000000000001         -4.8844481593326733E-024
  -11.160000000000000         -5.7396480141147077E-024
  -11.100000000000000         -6.5699623699270709E-024
  -11.040000000000001         -7.3385704211785154E-024
  -10.980000000000000         -8.0030178820168572E-024
  -10.920000000000000         -8.5156170663165284E-024
  -10.860000000000001         -8.8241242493540396E-024
  -10.800000000000001         -8.8727249499372334E-024
  -10.740000000000000         -8.6033574679779386E-024
  -10.680000000000000         -7.9573885091880896E-024
  -10.620000000000001         -6.8776505996141100E-024
  -10.560000000000000         -5.3108448460423753E-024
  -10.500000000000000         -3.2102821799998825E-024
  -10.440000000000001         -5.3894451664058547E-025
  -10.380000000000001          2.7271912008368352E-024
  -10.320000000000000          6.5956379234706056E-024
  -10.260000000000000          1.1053767760338525E-023
  -10.200000000000001          1.6065186640536888E-023
  -10.140000000000001          2.1566232100282235E-023
  -10.080000000000000          2.7462768021993677E-023
  -10.020000000000001          3.3627420512831696E-023
  -9.9600000000000009          3.9897438661180110E-023
  -9.9000000000000004          4.6073407605053001E-023
  -9.8399999999999999          5.1918992044862082E-023
  -9.7800000000000011          5.7161894285587296E-023
  -9.7200000000000006          6.1496309090327659E-023
  -9.6600000000000001          6.4586986814501153E-023
  -9.6000000000000014          6.6075102107082684E-023
  -9.5400000000000009          6.5586072720040812E-023
  -9.4800000000000004          6.2739389115796871E-023
  -9.4199999999999999          5.7160556303157587E-023
  -9.3600000000000012          4.8495082449486258E-023
  -9.3000000000000007          3.6424398652031385E-023
  -9.2400000000000002          2.0683621795842930E-023
  -9.1799999999999997          1.0807374646432986E-024
  -9.1200000000000010         -2.2482993636066699E-023
  -9.0600000000000005         -4.9992009196700865E-023
  -9.0000000000000000         -8.1295376822597668E-023
  -8.9400000000000013         -1.1608632671970227E-022
  -8.8800000000000008         -1.5388314746974099E-022
  -8.8200000000000003         -1.9401248250165307E-022
  -8.7599999999999998         -2.3559592769248953E-022
  -8.7000000000000011         -2.7754085845759752E-022
  -8.6400000000000006         -3.1853665843406464E-022
  -8.5800000000000001         -3.5705757570282560E-022
  -8.5200000000000014         -3.9137288252262813E-022
  -8.4600000000000009         -4.1956585764621373E-022
  -8.4000000000000004         -4.3956195889624298E-022
  -8.3399999999999999         -4.4916740042022955E-022
  -8.2800000000000011         -4.4611828404961271E-022
  -8.2200000000000006         -4.2814090778374182E-022
  -8.1600000000000001         -3.9302296121883419E-022
  -8.1000000000000014         -3.3869551107248165E-022
  -8.0400000000000009         -2.6332467973341240E-022
  -7.9800000000000004         -1.6541215678233240E-022
  -7.9200000000000017         -4.3902492887844560E-023
  -7.8599999999999994          1.0170476144219672E-022
  -7.8000000000000007          2.7124091501645755E-022
  -7.7400000000000020          4.6375522000484352E-022
  -7.6799999999999997          6.7740714420123916E-022
  -7.6200000000000010          9.0936739060216630E-022
  -7.5600000000000023          1.1557333777299031E-021
  -7.5000000000000000          1.4114632438614142E-021
  -7.4400000000000013          1.6703335800554854E-021
  -7.3799999999999990          1.9249272062938959E-021
  -7.3200000000000003          2.1666551642238982E-021
  -7.2600000000000016          2.3858183182539462E-021
  -7.1999999999999993          2.5717141258631596E-021
  -7.1400000000000006          2.7127907230801447E-021
  -7.0800000000000018          2.7968542262276666E-021
  -7.0199999999999996          2.8113285239770365E-021
  -6.9600000000000009          2.7435714043946007E-021
  -6.9000000000000021          2.5812443425672613E-021
  -6.8399999999999999          2.3127352922881397E-021
  -6.7800000000000011          1.9276276182232443E-021
  -6.7199999999999989          1.4172127402002030E-021
  -6.6600000000000001          7.7503370842458896E-022
  -6.6000000000000014         -2.5465520238136368E-024
  -6.5399999999999991         -9.1577227034435658E-022
  -6.4800000000000004         -1.9609233090177007E-021
  -6.4200000000000017         -3.1297743331651538E-021
  -6.3599999999999994         -4.4090927139306791E-021
  -6.3000000000000007         -5.7802092337128116E-021
  -6.2400000000000020         -7.2186714680088017E-021
  -6.1799999999999997         -8.6940183476749743E-021
  -6.1200000000000010         -1.0169684594892106E-020
  -6.0600000000000023         -1.1603074072235893E-020
  -6.0000000000000000         -1.2945818900501661E-020
  -5.9400000000000013         -1.4144239004971365E-020
  -5.8799999999999990         -1.5140036273051000E-020
  -5.8200000000000003         -1.5871221406801736E-020
  -5.7600000000000016         -1.6273296390904014E-020
  -5.6999999999999993         -1.6280696071823007E-020
  -5.6400000000000006         -1.5828474071288271E-020
  -5.5800000000000018         -1.4854246472321012E-020
  -5.5199999999999996         -1.3300351595587340E-020
  -5.4600000000000009         -1.1116215901532814E-020
  -5.4000000000000021         -8.2608871214220045E-021
  -5.3399999999999999         -4.7056768468330405E-021
  -5.2800000000000011         -4.3687399017495493E-022
  -5.2200000000000024          4.5415557634580490E-021
  -5.1600000000000001          1.0205337043227881E-020
  -5.1000000000000014          1.6507433835549984E-020
  -5.0399999999999991          2.3375843860725495E-020
  -4.9800000000000004          3.0711763937461935E-020
  -4.9200000000000017          3.8388206774063298E-020
  -4.8599999999999994          4.6249166584413160E-020
  -4.8000000000000007          5.4109504290092921E-020
  -4.7400000000000020          6.1755559062049271E-020
  -4.6799999999999997          6.8946649514391253E-020
  -4.6200000000000010          7.5417514903074592E-020
  -4.5600000000000023          8.0881821005406314E-020
  -4.5000000000000000          8.5036704969425225E-020
  -4.4400000000000013          8.7568449442922512E-020
  -4.3799999999999990          8.8159259917312227E-020
  -4.3200000000000003          8.6495188426176084E-020
  -4.2600000000000016          8.2275025225831036E-020
  -4.1999999999999993          7.5220223772350558E-020
  -4.1400000000000006          6.5085576890227577E-020
  -4.0800000000000018          5.1670598579246967E-020
  -4.0199999999999996          3.4831356441424792E-020
  -3.9600000000000009          1.4492460674370748E-020
  -3.9000000000000021         -9.3409852486210602E-021
  -3.8399999999999999         -3.6571895995892721E-020
  -3.7800000000000011         -6.7000429882381641E-020
  -3.7200000000000024         -1.0031442243573996E-019
  -3.6600000000000001         -1.3608136697863071E-019
  -3.6000000000000014         -1.7374241771989501E-019
  -3.5399999999999991         -2.1260874887123210E-019
  -3.4800000000000004         -2.5186081315588103E-019
  -3.4200000000000017         -2.9055089759725716E-019
  -3.3599999999999994         -3.2760926558928206E-019
  -3.3000000000000007         -3.6185419410183772E-019
  -3.2400000000000020         -3.9200638276849018E-019
  -3.1799999999999997         -4.1670783137916797E-019
  -3.1200000000000010         -4.3454514917012883E-019
  -3.0600000000000023         -4.4407755776698507E-019
  -3.0000000000000000         -4.4386944974604288E-019
  -2.9400000000000013         -4.3252707815892594E-019
  -2.8800000000000026         -4.0873929652056547E-019
  -2.8200000000000003         -3.7132168081952507E-019
  -2.7600000000000016         -3.1926340107370106E-019
  -2.6999999999999993         -2.5177615534533685E-019
  -2.6400000000000006         -1.6834399288474852E-019
  -2.5800000000000018         -6.8772954967322000E-020
  -2.5199999999999996          4.6760506342060399E-020
  -2.4600000000000009          1.7766355562914008E-019
  -2.4000000000000021          3.2288584766323062E-019
  -2.3399999999999999          4.8088349713762557E-019
  -2.2800000000000011          6.4959100852777143E-019
  -2.2200000000000024          8.2640157065435984E-019
  -2.1600000000000001          1.0081586804892674E-018
  -2.1000000000000014          1.1911594582030514E-018
  -2.0399999999999991          1.3711717536681714E-018
  -1.9800000000000004          1.5434665580179334E-018
  -1.9200000000000017          1.7028658162510475E-018
  -1.8599999999999994          1.8438080590462200E-018
  -1.8000000000000007          1.9604309209118196E-018
  -1.7400000000000020          2.0466717132802717E-018
  -1.6799999999999997          2.0963855078702792E-018
  -1.6200000000000010          2.1034798103487959E-018
  -1.5600000000000023          2.0620656856497403E-018
  -1.5000000000000000          1.9666225332093433E-018
  -1.4400000000000013          1.8121750478691815E-018
  -1.3800000000000026          1.5944799155704533E-018
  -1.3200000000000003          1.3102178083896386E-018
  -1.2600000000000016          9.5718857855549293E-019
  -1.1999999999999993          5.3450428139887063E-019
  -1.1400000000000006          4.2774344217324609E-020
  -1.0800000000000018         -5.1571841151248407E-019
  -1.0199999999999996         -1.1368612217911425E-018
 -0.96000000000000085         -1.8145779018328828E-018
 -0.90000000000000213         -2.5407220455753367E-018
 -0.83999999999999986         -3.3050073828019705E-018
 -0.78000000000000114         -4.0949760343531024E-018
 -0.72000000000000242         -4.8960159494562989E-018
 -0.66000000000000014         -5.6914250779748858E-018
 -0.60000000000000142         -6.4625352598786788E-018
 -0.53999999999999915         -7.1888915855733991E-018
 -0.48000000000000043         -7.8484949337843826E-018
 -0.42000000000000171         -8.4181103804247168E-018
 -0.35999999999999943         -8.8736370771479503E-018
 -0.30000000000000071         -9.1905409713954450E-018
 -0.24000000000000199         -9.3443499608662443E-018
 -0.17999999999999972         -9.3112057762585311E-018
 -0.12000000000000099         -9.0684673576956792E-018
  -6.0000000000002274E-002    -8.5953541664245221E-018
   0.0000000000000000         -7.8736257524459283E-018
   5.9999999999998721E-002    -6.8882851873207244E-018
  0.11999999999999744         -5.6282926815389841E-018
  0.17999999999999972         -4.0872695248858507E-018
  0.23999999999999844         -2.2641878462520580E-018
  0.30000000000000071         -1.6401717046845181E-019
  0.35999999999999943          2.2016822661439423E-018
  0.41999999999999815          4.8142451294803369E-018
  0.48000000000000043          7.6474766237539276E-018
  0.53999999999999915          1.0667347840089021E-017
  0.59999999999999787          1.3831824352069199E-017
  0.66000000000000014          1.7090846213905727E-017
  0.71999999999999886          2.0386474184819866E-017
  0.77999999999999758          2.3653226189819870E-017
  0.83999999999999986          2.6818609300072621E-017
  0.89999999999999858          2.9803865511806995E-017
  0.96000000000000085          3.2524913495480253E-017
   1.0199999999999996          3.4893527245346953E-017
   1.0799999999999983          3.6818713983042401E-017
   1.1400000000000006          3.8208327025199001E-017
   1.1999999999999993          3.8970836269529317E-017
   1.2599999999999980          3.9017319422420807E-017
   1.3200000000000003          3.8263585403584444E-017
   1.3799999999999990          3.6632445277065120E-017
   1.4399999999999977          3.4056071974721359E-017
   1.5000000000000000          3.0478415689149978E-017
   1.5599999999999987          2.5857657296595093E-017
   1.6199999999999974          2.0168592147862667E-017
   1.6799999999999997          1.3404962627741146E-017
   1.7399999999999984          5.5816253499274653E-018
   1.8000000000000007         -3.2634726502399537E-018
   1.8599999999999994         -1.3067557320132939E-017
   1.9199999999999982         -2.3741687176203558E-017
   1.9800000000000004         -3.5169716291157501E-017
   2.0399999999999991         -4.7207728656408596E-017
   2.0999999999999979         -5.9683991920948090E-017
   2.1600000000000001         -7.2399428643808027E-017
   2.2199999999999989         -8.5128686645851553E-017
   2.2799999999999976         -9.7621895527299171E-017
   2.3399999999999999         -1.0960700125409568E-016
   2.3999999999999986         -1.2079283111922695E-016
   2.4599999999999973         -1.3087281503600941E-016
   2.5199999999999996         -1.3952942473657139E-016
   2.5799999999999983         -1.4643921957615634E-016
   2.6400000000000006         -1.5127854754833285E-016
   2.6999999999999993         -1.5372981983849522E-016
   2.7599999999999980         -1.5348824295218087E-016
   2.8200000000000003         -1.5026903494618354E-016
   2.8799999999999990         -1.4381492017063435E-016
   2.9399999999999977         -1.3390380095471960E-016
   3.0000000000000000         -1.2035658711795545E-016
   3.0599999999999987         -1.0304489182217818E-016
   3.1199999999999974         -8.1898517737244955E-017
   3.1799999999999997         -5.6912639769553000E-017
   3.2399999999999984         -2.8154250744899454E-017
   3.3000000000000007          4.2318767946192100E-018
   3.3599999999999994          4.0018380763652643E-017
   3.4199999999999982          7.8891382863749269E-017
   3.4800000000000004          1.2044795133315774E-016
   3.5399999999999991          1.6419487524618845E-016
   3.5999999999999979          2.0954908959120739E-016
   3.6600000000000001          2.5583982200636320E-016
   3.7199999999999989          3.0231238078008048E-016
   3.7799999999999976          3.4813410143130834E-016
   3.8399999999999999          3.9240201506162932E-016
   3.8999999999999986          4.3415275159653354E-016
   3.9599999999999973          4.7237415413473689E-016
   4.0199999999999996          5.0601919305205032E-016
   4.0799999999999983          5.3402147475727389E-016
   4.1400000000000006          5.5531265988938007E-016
   4.1999999999999993          5.6884137598377546E-016
   4.2599999999999980          5.7359375774903464E-016
   4.3200000000000003          5.6861475518514597E-016
   4.3799999999999990          5.5303065571285812E-016
   4.4399999999999977          5.2607208077924637E-016
   4.5000000000000000          4.8709692991895187E-016
   4.5599999999999987          4.3561342811507279E-016
   4.6199999999999974          3.7130242836566045E-016
   4.6799999999999997          2.9403848847860149E-016
   4.7399999999999984          2.0390952147929291E-016
   4.7999999999999972          1.0123453574205677E-016
   4.8599999999999994         -1.3420995823386614E-017
   4.9199999999999982         -1.3923347390814663E-016
   4.9800000000000004         -2.7511171170843679E-016
   5.0399999999999991         -4.1969232953567302E-016
   5.0999999999999979         -5.7133872280365895E-016
   5.1600000000000001         -7.2814494612838687E-016
   5.2199999999999989         -8.8794411473238499E-016
   5.2799999999999976         -1.0483226887967656E-015
   5.3399999999999999         -1.2066390274430460E-015
   5.3999999999999986         -1.3600479059721114E-015
   5.4599999999999973         -1.5055306823364282E-015
   5.5199999999999996         -1.6399299685390113E-015
   5.5799999999999983         -1.7599902861331107E-015
   5.6400000000000006         -1.8624030667828733E-015
   5.6999999999999993         -1.9438566525246746E-015
   5.7599999999999980         -2.0010899737555975E-015
   5.8200000000000003         -2.0309498864253865E-015
   5.8799999999999990         -2.0304510182545580E-015
   5.9399999999999977         -1.9968386540716856E-015
   6.0000000000000000         -1.9276512890067538E-015
   6.0599999999999987         -1.8207852690793909E-015
   6.1199999999999974         -1.6745571899248674E-015
   6.1799999999999997         -1.4877653889588195E-015
   6.2399999999999984         -1.2597493359303858E-015
   6.2999999999999972         -9.9044196558748879E-016
   6.3599999999999994         -6.8042155775479097E-016
   6.4199999999999982         -3.3095375006841263E-016
   6.4800000000000004          5.5972976443643727E-017
   6.5399999999999991          4.7761911785843613E-016
   6.5999999999999979          9.3047646008349593E-016
   6.6600000000000001          1.4102610607304114E-015
   6.7199999999999989          1.9119153260144142E-015
   6.7799999999999976          2.4296270218664636E-015
   6.8399999999999999          2.9568538849296458E-015
   6.8999999999999986          3.4863676635444312E-015
   6.9599999999999973          4.0103068417652483E-015
   7.0199999999999996          4.5202471408591182E-015
   7.0799999999999983          5.0072800976071762E-015
   7.1400000000000006          5.4621099631684842E-015
   7.1999999999999993          5.8751596812809924E-015
   7.2599999999999980          6.2366911307152568E-015
   7.3200000000000003          6.5369327835275483E-015
   7.3799999999999990          6.7662213510452220E-015
   7.4399999999999977          6.9151505234859679E-015
   7.5000000000000000          6.9747238332648570E-015
   7.5599999999999987          6.9365169845426483E-015
   7.6199999999999974          6.7928403900676149E-015
   7.6799999999999997          6.5369058180745119E-015
   7.7399999999999984          6.1629892238615748E-015
   7.7999999999999972          5.6665900397704608E-015
   7.8599999999999994          5.0445879923130906E-015
   7.9199999999999982          4.2953896068288429E-015
   7.9800000000000004          3.4190642673751813E-015
   8.0399999999999991          2.4174652587823552E-015
   8.1000000000000014          1.2943404396580213E-015
   8.1599999999999966          5.5415214995038744E-017
   8.2199999999999989         -1.2915308094898418E-015
   8.2800000000000011         -2.7366226679173309E-015
   8.3399999999999963         -4.2678695899205449E-015
   8.3999999999999986         -5.8711674231179727E-015
   8.4600000000000009         -7.5303331975341569E-015
   8.5199999999999960         -9.2271685377247176E-015
   8.5799999999999983         -1.0941551109237345E-014
   8.6400000000000006         -1.2651558929234628E-014