  -24.000000000000000          0.0000000000000000     
  -23.940000000000001          0.0000000000000000     
  -23.879999999999999          0.0000000000000000     
  -23.820000000000000          0.0000000000000000     
  -23.760000000000002          0.0000000000000000     
  -23.699999999999999          0.0000000000000000     
  -23.640000000000001         -1.4572725766796565E-029
  -23.579999999999998         -1.8626285180088147E-028
  -23.520000000000000         -1.2777951097393486E-027
  -23.460000000000001         -6.2408762658332443E-027
  -23.399999999999999         -2.4303840214069297E-026
  -23.340000000000000         -8.0177340134983829E-026
  -23.280000000000001         -2.3257873300806010E-025
  -23.219999999999999         -6.0825825319661855E-025
  -23.160000000000000         -1.4598787070795985E-024
  -23.100000000000001         -3.2581047426415307E-024
  -23.039999999999999         -6.8295495512421032E-024
  -22.980000000000000         -1.3552140095822176E-023
  -22.920000000000002         -2.5617112343305688E-023
  -22.859999999999999         -4.6361546774409093E-023
  -22.800000000000001         -8.0665796000271004E-023
  -22.739999999999998         -1.3539659686801588E-022
  -22.680000000000000         -2.1985746166311692E-022
  -22.620000000000001         -3.4618492617490996E-022
  -22.559999999999999         -5.2960181965807510E-022
  -22.500000000000000         -7.8840900659156972E-022
  -22.440000000000001         -1.1435690934266623E-021
  -22.379999999999999         -1.6177088136307857E-021
  -22.320000000000000         -2.2333523148166822E-021
  -22.260000000000002         -3.0101920083093492E-021
  -22.199999999999999         -3.9612209599905581E-021
  -22.140000000000001         -5.0875913379676229E-021
  -22.079999999999998         -6.3721330028734519E-021
  -22.020000000000000         -7.7715636538956782E-021
  -21.960000000000001         -9.2075792964948386E-021
  -21.899999999999999         -1.0557177924375401E-020
  -21.840000000000000         -1.1642755965956832E-020
  -21.780000000000001         -1.2222852899514943E-020
  -21.719999999999999         -1.1984495669559613E-020
  -21.660000000000000         -1.0538531683287344E-020
  -21.600000000000001         -7.4194673509366091E-021
  -21.539999999999999         -2.0915565202247009E-021
  -21.480000000000000          6.0370673499366992E-021
  -21.420000000000002          1.7590196426590133E-020
  -21.359999999999999          3.3187756828000737E-020
  -21.300000000000001          5.3396777201832694E-020
  -21.240000000000002          7.8668170437719720E-020
  -21.180000000000000          1.0925900938695612E-019
  -21.120000000000001          1.4514091833943860E-019
  -21.059999999999999          1.8589618469317097E-019
  -21.000000000000000          2.3060500208978885E-019
  -20.940000000000001          2.7772795903314460E-019
  -20.879999999999999          3.2499045547053362E-019
  -20.820000000000000          3.6927695289126658E-019
  -20.760000000000002          4.0654474317009527E-019
  -20.699999999999999          4.3176860126662845E-019
  -20.640000000000001          4.3892906521169906E-019
  -20.579999999999998          4.2105806349348930E-019
  -20.520000000000000          3.7035525590887359E-019
  -20.460000000000001          2.7838961763535950E-019
  -20.399999999999999          1.3639848402003536E-019
  -20.340000000000000         -6.4305754452148950E-020
  -20.280000000000001         -3.3181381305365511E-019
  -20.219999999999999         -6.7298004810812681E-019
  -20.160000000000000         -1.0926686510123375E-018
  -20.100000000000001         -1.5928945241292103E-018
  -20.039999999999999         -2.1718771814543798E-018
  -19.980000000000000         -2.8230337631055346E-018
  -19.920000000000002         -3.5339485818915785E-018
  -19.859999999999999         -4.2853639032033952E-018
  -19.800000000000001         -5.0502499427361876E-018
  -19.740000000000002         -5.7930199569193624E-018
  -19.680000000000000         -6.4689602840670088E-018
  -19.620000000000001         -7.0239676838573847E-018
  -19.560000000000002         -7.3946651761128795E-018
  -19.500000000000000         -7.5089944283387301E-018
  -19.440000000000001         -7.2873685350159542E-018
  -19.379999999999999         -6.6444562345600790E-018
  -19.320000000000000         -5.4916795287105031E-018
  -19.259999999999998         -3.7404575655899365E-018
  -19.199999999999999         -1.3062418893596198E-018
  -19.140000000000001          1.8866612602772138E-018
  -19.079999999999998          5.8995176561417334E-018
  -19.020000000000000          1.0772907225227582E-017
  -18.960000000000001          1.6519892337667130E-017
  -18.899999999999999          2.3118778115649155E-017
  -18.840000000000000          3.0505676843639504E-017
  -18.780000000000001          3.8567121780332012E-017
  -18.719999999999999          4.7133051107501849E-017
  -18.660000000000000          5.5970530961272869E-017
  -18.600000000000001          6.4778551706621945E-017
  -18.539999999999999          7.3184433340626935E-017
  -18.480000000000000          8.0742191116385532E-017
  -18.420000000000002          8.6933337815462178E-017
  -18.359999999999999          9.1170670314914149E-017
  -18.300000000000001          9.2805332900255427E-017
  -18.240000000000002          9.1137656308718384E-017
  -18.180000000000000          8.5432049715039002E-017
  -18.120000000000001          7.4936194157741973E-017
  -18.060000000000002          5.8904667150975176E-017
  -18.000000000000000          3.6626954083796801E-017
  -17.940000000000001          7.4598414462944342E-018
  -17.879999999999999         -2.9136441290792901E-017
  -17.820000000000000         -7.3558440576813507E-017
  -17.759999999999998         -1.2601701452255956E-016
  -17.699999999999999         -1.8649338751086279E-016
  -17.640000000000001         -2.5469412473045895E-016
  -17.579999999999998         -3.3000716155562969E-016
  -17.520000000000000         -4.1145969717825681E-016
  -17.460000000000001         -4.9768061044789631E-016
  -17.399999999999999         -5.8686794614727531E-016
  -17.340000000000000         -6.7676487211778889E-016
  -17.280000000000001         -7.6464483047645745E-016
  -17.219999999999999         -8.4730904550332080E-016
  -17.160000000000000         -9.2109734164013866E-016
  -17.100000000000001         -9.8191510627744475E-016
  -17.039999999999999         -1.0252773177838598E-015
  -16.980000000000000         -1.0463716136776033E-015
  -16.920000000000002         -1.0401408608274307E-015
  -16.859999999999999         -1.0013870243595353E-015
  -16.800000000000001         -9.2489494327547928E-016
  -16.740000000000002         -8.0557706092886646E-016
  -16.680000000000000         -6.3863746494867486E-016
  -16.620000000000001         -4.1975342862132785E-016
  -16.560000000000002         -1.4527275066161053E-016
  -16.500000000000000          1.8757689787251664E-016
  -16.440000000000001          5.8046974541609454E-016
  -16.379999999999999          1.0337600864960124E-015
  -16.320000000000000          1.5462614423373524E-015
  -16.260000000000002          2.1150330222575513E-015
  -16.199999999999999          2.7351792275793383E-015
  -16.140000000000001          3.3996704948851775E-015
  -16.079999999999998          4.0991896554736143E-015
  -16.020000000000000          4.8220158937159200E-015
  -15.960000000000001          5.5539482919019773E-015
  -15.900000000000000          6.2782820473653580E-015
  -15.840000000000000          6.9758396820735669E-015
  -15.780000000000001          7.6250632092994145E-015
  -15.720000000000001          8.2021788145509288E-015
  -15.660000000000000          8.6814348978735507E-015
  -15.600000000000000          9.0354136522600778E-015
  -15.540000000000001          9.2354252770125620E-015
  -15.480000000000000          9.2519822288452809E-015
  -15.420000000000000          9.0553506813211249E-015
  -15.359999999999999          8.6161827301831039E-015
  -15.300000000000001          7.9062169560603015E-015
  -15.240000000000000          6.8990465067900467E-015
  -15.180000000000000          5.5709432542736752E-015
  -15.120000000000001          3.9017307627367859E-015
  -15.060000000000000          1.8756845795404204E-015
  -15.000000000000000         -5.1754143945111045E-016
  -14.940000000000000         -3.2819917523037444E-015
  -14.880000000000001         -6.4144949837769758E-015
  -14.820000000000000         -9.9037977921271225E-015
  -14.760000000000000         -1.3729741984908530E-014
  -14.700000000000001         -1.7862523972132598E-014
  -14.640000000000001         -2.2262062415807453E-014
  -14.580000000000000         -2.6877464828791186E-014
  -14.520000000000000         -3.1646682092311450E-014
  -14.460000000000001         -3.6496286323007701E-014
  -14.400000000000000         -4.1341472658047891E-014
  -14.340000000000000         -4.6086244918074911E-014
  -14.280000000000001         -5.0623849445143074E-014
  -14.220000000000001         -5.4837433784759294E-014
  -14.160000000000000         -5.8600985789189024E-014
  -14.100000000000000         -6.1780521468010100E-014
  -14.040000000000001         -6.4235561706550726E-014
  -13.980000000000000         -6.5820872721166111E-014
  -13.920000000000000         -6.6388520893080951E-014
  -13.860000000000001         -6.5790150969491209E-014
  -13.800000000000001         -6.3879586872856884E-014
  -13.740000000000000         -6.0515638009963193E-014
  -13.680000000000000         -5.5565160118123878E-014
  -13.620000000000001         -4.8906332257203233E-014
  -13.560000000000000         -4.0432085120130428E-014
  -13.500000000000000         -3.0053702763171982E-014
  -13.440000000000001         -1.7704499917056401E-014
  -13.380000000000001         -3.3435610386394398E-015
  -13.320000000000000          1.3040516207299717E-014
  -13.260000000000000          3.1425935800026384E-014
  -13.200000000000001          5.1754143496699692E-014
  -13.140000000000001          7.3926454268651202E-014
  -13.080000000000000          9.7800944788077930E-014
  -13.020000000000000          1.2318966835423049E-013
  -12.960000000000001          1.4985634379392099E-013
  -12.900000000000000          1.7751448318116141E-013
  -12.840000000000000          2.0582610976184458E-013
  -12.780000000000001          2.3440121268580876E-013
  -12.720000000000001          2.6279797882883568E-013
  -12.660000000000000          2.9052374568504515E-013
  -12.600000000000000          3.1703701421011117E-013
  -12.540000000000001          3.4175037869926221E-013
  -12.480000000000000          3.6403454671416468E-013
  -12.420000000000000          3.8322354327943135E-013
  -12.360000000000001          3.9862107734277839E-013
  -12.300000000000001          4.0950812928258476E-013
  -12.240000000000000          4.1515171298863123E-013
  -12.180000000000000          4.1481500945203240E-013
  -12.120000000000001          4.0776858097474149E-013
  -12.060000000000000          3.9330301955148972E-013
  -12.000000000000000          3.7074243549333999E-013
  -11.940000000000001          3.3945917148861050E-013
  -11.880000000000001          2.9888942445508450E-013
  -11.820000000000000          2.4854959478607336E-013
  -11.760000000000000          1.8805331523280329E-013
  -11.700000000000001          1.1712870463792494E-013
  -11.640000000000001          3.5636059939264693E-014
  -11.580000000000000         -5.6414894821774806E-014
  -11.520000000000000         -1.5884795209349508E-013
  -11.460000000000001         -2.7130415203921169E-013
  -11.400000000000000         -3.9322681506540263E-013
  -11.340000000000000         -5.2384772097973010E-013
  -11.280000000000001         -6.6217541007370689E-013
  -11.220000000000001         -8.0698571234092073E-013
  -11.160000000000000         -9.5681503289414195E-013
  -11.100000000000000         -1.1099565021543909E-012
  -11.040000000000001         -1.2644596683150085E-012
  -10.980000000000000         -1.4181346188937273E-012
  -10.920000000000000         -1.5685596553492915E-012
  -10.860000000000001         -1.7130934862130620E-012
  -10.800000000000001         -1.8488938584806931E-012
  -10.740000000000000         -1.9729381666064186E-012
  -10.680000000000000         -2.0820522968333496E-012
  -10.620000000000001         -2.1729438534027238E-012
  -10.560000000000000         -2.2422394591172033E-012
  -10.500000000000000         -2.2865294992975618E-012
  -10.440000000000001         -2.3024156226254481E-012
  -10.380000000000001         -2.2865647709145612E-012
  -10.320000000000000         -2.2357670635162921E-012
  -10.260000000000000         -2.1469966137964280E-012
  -10.200000000000001         -2.0174769981222062E-012
  -10.140000000000001         -1.8447482452399419E-012
  -10.080000000000000         -1.6267354142762102E-012
  -10.020000000000001         -1.3618186259201734E-012
  -9.9600000000000009         -1.0489018323513164E-012
  -9.9000000000000004         -6.8748040138230851E-013
  -9.8399999999999999         -2.7770598825824082E-013
  -9.7800000000000011          1.7955267864453426E-013
  -9.7200000000000006          6.8265456598681986E-013
  -9.6600000000000001          1.2291375472474272E-012
  -9.6000000000000014          1.8156773826210895E-012
  -9.5400000000000009          2.4380570692024370E-012
  -9.4800000000000004          3.0911458075689981E-012
  -9.4199999999999999          3.7688903480862865E-012
  -9.3600000000000012          4.4643193356397606E-012
  -9.3000000000000007          5.1695606760894607E-012
  -9.2400000000000002          5.8758756996326839E-012
  -9.1799999999999997          6.5737074302529265E-012
  -9.1200000000000010          7.2527434974769663E-012
  -9.0600000000000005          7.9020005153491646E-012
  -9.0000000000000000          8.5099164045880333E-012
  -8.9400000000000013          9.0644648888851268E-012
  -8.8800000000000008          9.5532872129052886E-012
  -8.8200000000000003          9.9638305019282774E-012
  -8.7599999999999998          1.0283510018633294E-011
  -8.7000000000000011          1.0499874686839133E-011
  -8.6400000000000006          1.0600789390239050E-011
  -8.5800000000000001          1.0574623926754762E-011
  -8.5200000000000014          1.0410451032735535E-011
  -8.4600000000000009          1.0098246807869918E-011
  -8.4000000000000004          9.6290935476364430E-012
  -8.3399999999999999          8.9953833129282856E-012
  -8.2800000000000011          8.1910174566065822E-012
  -8.2200000000000006          7.2115998227624009E-012
  -8.1600000000000001          6.0546194809208615E-012
  -8.1000000000000014          4.7196235933518138E-012
  -8.0400000000000009          3.2083717580436010E-012
  -7.9800000000000004          1.5249739756928393E-012
  -7.9200000000000017         -3.2399448998025208E-013
  -7.8599999999999994         -2.3294009297615059E-012
  -7.8000000000000007         -4.4794895758716744E-012
  -7.7400000000000020         -6.7598487281331923E-012
  -7.6799999999999997         -9.1534036575869335E-012
  -7.6200000000000010         -1.1640445189340120E-011
  -7.5600000000000023         -1.4198694708383837E-011
  -7.5000000000000000         -1.6803399548385488E-011
  -7.4400000000000013         -1.9427467241390880E-011
  -7.3799999999999990         -2.2041641528427086E-011
  -7.3200000000000003         -2.4614700484868639E-011
  -7.2600000000000016         -2.7113702665228887E-011
  -7.1999999999999993         -2.9504258002423042E-011
  -7.1400000000000006         -3.1750841362262219E-011
  -7.0800000000000018         -3.3817126593894019E-011
  -7.0199999999999996         -3.5666359478969295E-011
  -6.9600000000000009         -3.7261741066236972E-011
  -6.9000000000000021         -3.8566838399095911E-011
  -6.8399999999999999         -3.9546025370659640E-011
  -6.7800000000000011         -4.0164924132895657E-011
  -6.7199999999999989         -4.0390862296172654E-011
  -6.6600000000000001         -4.0193322396574662E-011
  -6.6000000000000014         -3.9544420468883652E-011
  -6.5399999999999991         -3.8419345572733554E-011
  -6.4800000000000004         -3.6796817520003715E-011
  -6.4200000000000017         -3.4659515327330456E-011
  -6.3599999999999994         -3.1994497792470507E-011
  -6.3000000000000007         -2.8793582851487856E-011
  -6.2400000000000020         -2.5053706345070710E-011
  -6.1799999999999997         -2.0777254968658931E-011
  -6.1200000000000010         -1.5972341765595308E-011
  -6.0600000000000023         -1.0653050517066387E-011
  -6.0000000000000000         -4.8396284798907433E-012
  -5.9400000000000013          1.4413776826357736E-012
  -5.8799999999999990          8.1570370764424128E-012
  -5.8200000000000003          1.5268014605126452E-011
  -5.7600000000000016          2.2728597531517846E-011
  -5.6999999999999993          3.0486815236373264E-011
  -5.6400000000000006          3.8484606988830357E-011
  -5.5800000000000018          4.6658051308742853E-011
  -5.5199999999999996          5.4937696099913629E-011
  -5.4600000000000009          6.3248906194646238E-011
  -5.4000000000000021          7.1512351598584843E-011
  -5.3399999999999999          7.9644489224879308E-011
  -5.2800000000000011          8.7558177943464067E-011
  -5.2200000000000024          9.5163298542686486E-011
  -5.1600000000000001          1.0236749513990651E-010
  -5.1000000000000014          1.0907694287646352E-010
  -5.0399999999999991          1.1519712777078300E-010
  -4.9800000000000004          1.2063378964640265E-010
  -4.9200000000000017          1.2529378145975372E-010
  -4.8599999999999994          1.2908604881887860E-010
  -4.8000000000000007          1.3192262092339768E-010
  -4.7400000000000020          1.3371956796249882E-010
  -4.6799999999999997          1.3439805303478605E-010
  -4.6200000000000010          1.3388534067224137E-010
  -4.5600000000000023          1.3211579960016768E-010
  -4.5000000000000000          1.2903190221332667E-010
  -4.4400000000000013          1.2458516645067426E-010
  -4.3799999999999990          1.1873708733654073E-010
  -4.3200000000000003          1.1146001015769815E-010
  -4.2600000000000016          1.0273791682961155E-010
  -4.1999999999999993          9.2567197474602348E-011
  -4.1400000000000006          8.0957243605545092E-011
  -4.0800000000000018          6.7931028936145183E-011
  -4.0199999999999996          5.3525560144591110E-011
  -3.9600000000000009          3.7792162186010250E-011
  -3.9000000000000021          2.0796707649481319E-011
  -3.8399999999999999          2.6196691375591755E-012
  -3.7800000000000011         -1.6643959526255897E-011
  -3.7200000000000024         -3.6884890891514221E-011
  -3.6600000000000001         -5.7979915059292383E-011
  -3.6000000000000014         -7.9792417615633290E-011
  -3.5399999999999991         -1.0217309662473886E-010
  -3.4800000000000004         -1.2496076257648297E-010
  -3.4200000000000017         -1.4798332771967180E-010
  -3.3599999999999994         -1.7105897905149322E-010
  -3.3000000000000007         -1.9399738005840936E-010
  -3.2400000000000020         -2.1660114610416255E-010
  -3.1799999999999997         -2.3866725181092471E-010
  -3.1200000000000010         -2.5998879722026031E-010
  -3.0600000000000023         -2.8035662944657634E-010
  -3.0000000000000000         -2.9956113668254413E-010
  -2.9400000000000013         -3.1739406499096242E-010
  -2.8800000000000026         -3.3365046677229928E-010
  -2.8200000000000003         -3.4813055601993511E-010
  -2.7600000000000016         -3.6064166760770780E-010
  -2.6999999999999993         -3.7100006218311401E-010
  -2.6400000000000006         -3.7903275905132969E-010
  -2.5800000000000018         -3.8457930571359117E-010
  -2.5199999999999996         -3.8749353866283310E-010
  -2.4600000000000009         -3.8764499589137183E-010
  -2.4000000000000021         -3.8492044490822759E-010
  -2.3399999999999999         -3.7922516069063304E-010
  -2.2800000000000011         -3.7048410728980213E-010
  -2.2200000000000024         -3.5864279556382012E-010
  -2.1600000000000001         -3.4366812053204734E-010
  -2.1000000000000014         -3.2554893705887569E-010
  -2.0399999999999991         -3.0429649958321217E-010
  -1.9800000000000004         -2.7994447654089236E-010
  -1.9200000000000017         -2.5254905903584347E-010
  -1.8599999999999994         -2.2218868794755766E-010
  -1.8000000000000007         -1.8896362782294741E-010
  -1.7400000000000020         -1.5299534862941757E-010
  -1.6799999999999997         -1.1442570411555510E-010
  -1.6200000000000010         -7.3416039396993585E-011
  -1.5600000000000023         -3.0146030031243067E-011
  -1.5000000000000000          1.5187528635933039E-011
  -1.4400000000000013          6.2372072593746593E-011
  -1.3800000000000026          1.1118067078893479E-010
  -1.3200000000000003          1.6137354773011623E-010
  -1.2600000000000016          2.1269962180840755E-010
  -1.1999999999999993          2.6489806216320368E-010
  -1.1400000000000006          3.1769984593568508E-010
  -1.0800000000000018          3.7082927279188895E-010
  -1.0199999999999996          4.2400543641240562E-010
 -0.96000000000000085          4.7694379232193190E-010
 -0.90000000000000213          5.2935724774936178E-010
 -0.83999999999999986          5.8095767308256030E-010
 -0.78000000000000114          6.3145690603936865E-010
 -0.72000000000000242          6.8056767554299976E-010
 -0.66000000000000014          7.2800482964981193E-010
 -0.60000000000000142          7.7348575683362801E-010
 -0.53999999999999915          8.1673136181906942E-010
 -0.48000000000000043          8.5746640521852638E-010
 -0.42000000000000171          8.9542003162040228E-010
 -0.35999999999999943          9.3032605495682855E-010
 -0.30000000000000071          9.6192327903789264E-010
 -0.24000000000000199          9.8995563368071129E-010
 -0.17999999999999972          1.0141721122584489E-009
 -0.12000000000000099          1.0343272818627875E-009
  -6.0000000000002274E-002     1.0501811475262239E-009
   0.0000000000000000          1.0614989807982129E-009
   5.9999999999998721E-002     1.0680518706093580E-009
  0.11999999999999744          1.0696165971236081E-009
  0.17999999999999972          1.0659759933307265E-009
  0.23999999999999844          1.0569194524265173E-009
  0.30000000000000071          1.0422430302725680E-009
  0.35999999999999943          1.0217503525847415E-009
  0.41999999999999815          9.9525303271988225E-010
  0.48000000000000043          9.6257197615005622E-010
  0.53999999999999915          9.2353802512438738E-010
  0.59999999999999787          8.7799337359642466E-010
  0.66000000000000014          8.2579287970996908E-010
  0.71999999999999886          7.6680575359598268E-010
  0.77999999999999758          7.0091700309529555E-010
  0.83999999999999986          6.2802937081883709E-010
  0.89999999999999858          5.4806542300581079E-010
  0.96000000000000085          4.6096940674191731E-010
   1.0199999999999996          3.6670957504610367E-010
   1.0799999999999983          2.6528031611540797E-010
   1.1400000000000006          1.5670446815590913E-010
   1.1999999999999993          4.1035597723262228E-011
   1.2599999999999980         -8.1639789538596829E-011
   1.3200000000000003         -2.1120002361715984E-010
   1.3799999999999990         -3.4748616305951761E-010
   1.4399999999999977         -4.9029986387074706E-010
   1.5000000000000000         -6.3940174718763454E-010
   1.5599999999999987         -7.9450961799919273E-010
   1.6199999999999974         -9.5529676342654961E-010
   1.6799999999999997         -1.1213908954617516E-009
   1.7399999999999984         -1.2923731657738288E-009
   1.8000000000000007         -1.4677774117687561E-009
   1.8599999999999994         -1.6470894780575050E-009
   1.9199999999999982         -1.8297474403135846E-009
   1.9800000000000004         -2.0151413590802963E-009
   2.0399999999999991         -2.2026141453269935E-009
   2.0999999999999979         -2.3914623396908049E-009
   2.1600000000000001         -2.5809371281300269E-009
   2.2199999999999989         -2.7702461583433134E-009
   2.2799999999999976         -2.9585553726583496E-009
   2.3399999999999999         -3.1449906622510004E-009
   2.3999999999999986         -3.3286413695155665E-009
   2.4599999999999973         -3.5085630715616495E-009
   2.5199999999999996         -3.6837798862263454E-009
   2.5799999999999983         -3.8532901429630460E-009
   2.6400000000000006         -4.0160675989118698E-009
   2.6999999999999993         -4.1710676679226487E-009
   2.7599999999999980         -4.3172315767244835E-009
   2.8200000000000003         -4.4534908046771616E-009
   2.8799999999999990         -4.5787732273146665E-009
   2.9399999999999977         -4.6920068822768287E-009
   3.0000000000000000         -4.7921282226967660E-009
   3.0599999999999987         -4.8780855150528755E-009
   3.1199999999999974         -4.9488475503793950E-009
   3.1799999999999997         -5.0034088360041378E-009
   3.2399999999999984         -5.0407972208684501E-009
   3.3000000000000007         -5.0600798920431918E-009
   3.3599999999999994         -5.0603725168883993E-009
   3.4199999999999982         -5.0408454073054199E-009
   3.4800000000000004         -5.0007322010924908E-009
   3.5399999999999991         -4.9393380361280105E-009
   3.5999999999999979         -4.8560469782344915E-009
   3.6600000000000001         -4.7503304103614503E-009
   3.7199999999999989         -4.6217564495875041E-009
   3.7799999999999976         -4.4699977937793642E-009
   3.8399999999999999         -4.2948402042335287E-009
   3.8999999999999986         -4.0961906786530561E-009
   3.9599999999999973         -3.8740875761074078E-009
   4.0199999999999996         -3.6287063167137009E-009
   4.0799999999999983         -3.3603696664282904E-009
   4.1400000000000006         -3.0695538146384552E-009
   4.1999999999999993         -2.7568973699485286E-009
   4.2599999999999980         -2.4232073388295234E-009
   4.3200000000000003         -2.0694655505590642E-009
   4.3799999999999990         -1.6968349279675486E-009
   4.4399999999999977         -1.3066647891024314E-009
   4.5000000000000000         -9.0049503451752359E-010
   4.5599999999999987         -4.8005980621130380E-010
   4.6199999999999974         -4.7290424460510199E-011
   4.6799999999999997          3.9568313823212142E-010
   4.7399999999999984          8.4653112589886814E-010
   4.7999999999999972          1.3027245090462523E-009
   4.8599999999999994          1.7615366809173460E-009
   4.9199999999999982          2.2200460070801275E-009
   4.9800000000000004          2.6751394764892098E-009
   5.0399999999999991          3.1235173358440888E-009
   5.0999999999999979          3.5617007062527803E-009
   5.1600000000000001          3.9860374284188591E-009
   5.2199999999999989          4.3927113911610042E-009
   5.2799999999999976          4.7777523053678714E-009
   5.3399999999999999          5.1370462812582411E-009
   5.3999999999999986          5.4663482906373223E-009
   5.4599999999999973          5.7612943907280554E-009
   5.5199999999999996          6.0174153049382768E-009
   5.5799999999999983          6.2301515361851289E-009
   5.6400000000000006          6.3948690807481802E-009
   5.6999999999999993          6.5068731913983664E-009
   5.7599999999999980          6.5614276561385799E-009
   5.8200000000000003          6.5537698819264392E-009
   5.8799999999999990          6.4791283631544366E-009
   5.9399999999999977          6.3327408482917881E-009
   6.0000000000000000          6.1098709945859242E-009
   6.0599999999999987          5.8058272394526245E-009
   6.1199999999999974          5.4159808878116848E-009
   6.1799999999999997          4.9357823266894817E-009
   6.2399999999999984          4.3607807395620897E-009
   6.2999999999999972          3.6866404380488372E-009
   6.3599999999999994          2.9091591113092208E-009
   6.4199999999999982          2.0242846391448701E-009
   6.4800000000000004          1.0281346338768884E-009
   6.5399999999999991         -8.2988937662724017E-011
   6.5999999999999979         -1.3125785414519656E-009
   6.6600000000000001         -2.6639062987805685E-009
   6.7199999999999989         -4.1400057136769611E-009
   6.7799999999999976         -5.7436512481877206E-009
   6.8399999999999999         -7.4773407688724102E-009
   6.8999999999999986         -9.3432764132338923E-009
   6.9599999999999973         -1.1343345032802521E-008
   7.0199999999999996         -1.3479095125380958E-008
   7.0799999999999983         -1.5751717260976909E-008
   7.1400000000000006         -1.8162020683685125E-008
   7.1999999999999993         -2.0710403685137599E-008
   7.2599999999999980         -2.3396835459516001E-008
   7.3200000000000003         -2.6220829009743905E-008
   7.3799999999999990         -2.9181399766828344E-008
   7.4399999999999977         -3.2277047108839846E-008
   7.5000000000000000         -3.5505715468190056E-008
   7.5599999999999987         -3.8864767303211762E-008
   7.6199999999999974         -4.2350941537507657E-008
   7.6799999999999997         -4.5960305759446912E-008
   7.7399999999999984         -4.9688221449510322E-008
   7.7999999999999972         -5.3529311027360507E-008
   7.8599999999999994         -5.7477400331216406E-008
   7.9199999999999982         -6.1525456816853061E-008
   7.9800000000000004         -6.5665574491106437E-008
   8.0399999999999991         -6.9888904617880750E-008
   8.1000000000000014         -7.4185591581832012E-008
   8.1599999999999966         -7.8544707365140699E-008
   8.2199999999999989         -8.2954228788861076E-008
   8.2800000000000011         -8.7400962514875857E-008
   8.3399999999999963         -9.1870452737341479E-008
   8.3999999999999986         -9.6346965582633295E-008
   8.4600000000000009         -1.0081337983576740E-007
   8.5199999999999960         -1.0525114402187302E-007
   8.5799999999999983         -1.0964019219454841E-007
   8.6400000000000006         -1.1395888749525311E-007