  -24.000000000000000          0.0000000000000000     
  -23.940000000000001          0.0000000000000000     
  -23.879999999999999          0.0000000000000000     
  -23.820000000000000          0.0000000000000000     
  -23.760000000000002          0.0000000000000000     
  -23.699999999999999          0.0000000000000000     
  -23.640000000000001          0.0000000000000000     
  -23.579999999999998          0.0000000000000000     
  -23.520000000000000          1.2458833264655324E-050
  -23.460000000000001          2.0774050529962669E-049
  -23.399999999999999         -1.7281114500649188E-038
  -23.340000000000000         -1.6400094276289160E-037
  -23.280000000000001         -1.1098466828832960E-036
  -23.219999999999999         -5.9231776394833890E-036
  -23.160000000000000         -2.6459130484756629E-035
  -23.100000000000001         -1.0227529875555268E-034
  -23.039999999999999         -3.5255555236643649E-034
  -22.980000000000000         -1.1039593909747796E-033
  -22.920000000000002         -3.1837392498288439E-033
  -22.859999999999999         -8.5481001988491654E-033
  -22.800000000000001         -2.1552598027544645E-032
  -22.739999999999998         -5.1389829669514988E-032
  -22.680000000000000         -1.1655044851987813E-031
  -22.620000000000001         -2.5264117425351674E-031
  -22.559999999999999         -5.2554672750328747E-031
  -22.500000000000000         -1.0527734266109048E-030
  -22.440000000000001         -2.0368515224039750E-030
  -22.379999999999999         -3.8158560557820112E-030
  -22.320000000000000         -6.9373287165829001E-030
  -22.260000000000002         -1.2262944515406291E-029
  -22.199999999999999         -2.1111890064942912E-029
  -22.140000000000001         -3.5450659398619301E-029
  -22.079999999999998         -5.8135358504579670E-029
  -22.020000000000000         -9.3208835673716854E-029
  -21.960000000000001         -1.4624836783915230E-028
  -21.899999999999999         -2.2474940213504554E-028
  -21.840000000000000         -3.3851642616795322E-028
  -21.780000000000001         -5.0001206169437137E-028
  -21.719999999999999         -7.2459106551081824E-028
  -21.660000000000000         -1.0305158377699127E-027
  -21.600000000000001         -1.4386177167489527E-027
  -21.539999999999999         -1.9714314911555153E-027
  -21.480000000000000         -2.6515979256246309E-027
  -21.420000000000002         -3.4993058265587964E-027
  -21.359999999999999         -4.5285255478056853E-027
  -21.300000000000001         -5.7417954549488356E-027
  -21.240000000000002         -7.1233683589167623E-027
  -21.180000000000000         -8.6305875184443950E-027
  -21.120000000000001         -1.0183511159599965E-026
  -21.059999999999999         -1.1652974131782463E-026
  -21.000000000000000         -1.2847561680752510E-026
  -20.940000000000001         -1.3500271420897595E-026
  -20.879999999999999         -1.3256074026559566E-026
  -20.820000000000000         -1.1662041411096789E-026
  -20.760000000000002         -8.1622282228516244E-027
  -20.699999999999999         -2.1000327377371369E-027
  -20.640000000000001          7.2687613515708879E-027
  -20.579999999999998          2.0748565038922414E-026
  -20.520000000000000          3.9158294764125325E-026
  -20.460000000000001          6.3263441849411341E-026
  -20.399999999999999          9.3682223517912408E-026
  -20.340000000000000          1.3076292794048148E-025
  -20.280000000000001          1.7443070637228345E-025
  -20.219999999999999          2.2400416572743699E-025
  -20.160000000000000          2.7798462736121564E-025
  -20.100000000000001          3.3382405595260208E-025
  -20.039999999999999          3.8768245141009808E-025
  -19.980000000000000          4.3418949651313001E-025
  -19.920000000000002          4.6623145961380106E-025
  -19.859999999999999          4.7478951036304623E-025
  -19.800000000000001          4.4886150512722045E-025
  -19.740000000000002          3.7550594753956420E-025
  -19.680000000000000          2.4004892742352136E-025
  -19.620000000000001          2.6500282580799553E-026
  -19.560000000000002         -2.8177540308871091E-025
  -19.500000000000000         -7.0108957371174068E-025
  -19.440000000000001         -1.2461245345871599E-024
  -19.379999999999999         -1.9282664984750685E-024
  -19.320000000000000         -2.7535669693472531E-024
  -19.259999999999998         -3.7203454067706033E-024
  -19.199999999999999         -4.8164726091389338E-024
  -19.140000000000001         -6.0164178543526603E-024
  -19.079999999999998         -7.2781685860626043E-024
  -19.020000000000000         -8.5401963835142258E-024
  -18.960000000000001         -9.7186834297098255E-024
  -18.899999999999999         -1.0705267519356266E-023
  -18.840000000000000         -1.1365637881272374E-023
  -18.780000000000001         -1.1539329314853043E-023
  -18.719999999999999         -1.1041125030250725E-023
  -18.660000000000000         -9.6644826547244963E-024
  -18.600000000000001         -7.1874038526561404E-024
  -18.539999999999999         -3.3811644354975762E-024
  -18.480000000000000          1.9777827606034859E-024
  -18.420000000000002          9.0924389341999175E-024
  -18.359999999999999          1.8126340031426922E-023
  -18.300000000000001          2.9181110243934278E-023
  -18.240000000000002          4.2270790322438781E-023
  -18.180000000000000          5.7293479581198548E-023
  -18.120000000000001          7.4001155026597911E-023
  -18.060000000000002          9.1968892899784402E-023
  -18.000000000000000          1.1056505903626524E-022
  -17.940000000000001          1.2892449595170145E-022
  -17.879999999999999          1.4592698691617742E-022
  -17.820000000000000          1.6018378019916317E-022
  -17.759999999999998          1.7003525436685027E-022
  -17.699999999999999          1.7356273127764089E-022
  -17.640000000000001          1.6861798611736479E-022
  -17.579999999999998          1.5287361583768536E-022
  -17.520000000000000          1.2389718399837144E-022
  -17.460000000000001          7.9251820761873385E-023
  -17.399999999999999          1.6624931363169249E-023
  -17.340000000000000         -6.6014293433993139E-023
  -17.280000000000001         -1.7022885268425225E-022
  -17.219999999999999         -2.9690195476985972E-022
  -17.160000000000000         -4.4600282819200219E-022
  -17.100000000000001         -6.1633684906280303E-022
  -17.039999999999999         -8.0528824735041060E-022
  -16.980000000000000         -1.0085670647969479E-021
  -16.920000000000002         -1.2199737366730041E-021
  -16.859999999999999         -1.4311977610230479E-021
  -16.800000000000001         -1.6316684699747883E-021
  -16.740000000000002         -1.8084800208209182E-021
  -16.680000000000000         -1.9464100112239439E-021
  -16.620000000000001         -2.0280574855134713E-021
  -16.560000000000002         -2.0341199174897524E-021
  -16.500000000000000         -1.9438313904247479E-021
  -16.440000000000001         -1.7355823944622964E-021
  -16.379999999999999         -1.3877303153163784E-021
  -16.320000000000000         -8.7961466360132088E-022
  -16.260000000000002         -1.9277382934316848E-022
  -16.199999999999999          6.8764238550056763E-022
  -16.140000000000001          1.7712862243968092E-021
  -16.079999999999998          3.0608803508039307E-021
  -16.020000000000000          4.5503897553461149E-021
  -15.960000000000001          6.2231544701632787E-021
  -15.900000000000000          8.0500632743666127E-021
  -15.840000000000000          9.9878540243176949E-021
  -15.780000000000001          1.1977648846917213E-020
  -15.720000000000001          1.3943845920955508E-020
  -15.660000000000000          1.5793489506586710E-020
  -15.600000000000000          1.7416259877125315E-020
  -15.540000000000001          1.8685221156192571E-020
  -15.480000000000000          1.9458464495436600E-020
  -15.420000000000000          1.9581766816078159E-020
  -15.359999999999999          1.8892382208588140E-020
  -15.300000000000001          1.7224053497566117E-020
  -15.240000000000000          1.4413280352645931E-020
  -15.180000000000000          1.0306877727819299E-020
  -15.120000000000001          4.7707638351185086E-021
  -15.060000000000000         -2.3001326064283934E-021
  -15.000000000000000         -1.0970982326672205E-020
  -14.940000000000000         -2.1255475533184599E-020
  -14.880000000000001         -3.3103842242738817E-020
  -14.820000000000000         -4.6390909269370517E-020
  -14.760000000000000         -6.0904665539080128E-020
  -14.700000000000001         -7.6335929365153858E-020
  -14.640000000000001         -9.2269740094942096E-020
  -14.580000000000000         -1.0817919576201283E-019
  -14.520000000000000         -1.2342247455647067E-019
  -14.460000000000001         -1.3724378828281222E-019
  -14.400000000000000         -1.4877908309879294E-019
  -14.340000000000000         -1.5706719435750531E-019
  -14.280000000000001         -1.6106701329223633E-019
  -14.220000000000001         -1.5968147563618026E-019
  -14.160000000000000         -1.5178839389508163E-019
  -14.100000000000000         -1.3627869682588731E-019
  -14.040000000000001         -1.1210177911353511E-019
  -13.980000000000000         -7.8317793363284932E-020
  -13.920000000000000         -3.4156082103849723E-020
  -13.860000000000001          2.0921008813008528E-020
  -13.800000000000001          8.7150696457717783E-020
  -13.740000000000000          1.6440016215876640E-019
  -13.680000000000000          2.5209717671300155E-019
  -13.620000000000001          3.4916364061710176E-019
  -13.560000000000000          4.5395479744901547E-019
  -13.500000000000000          5.6420778769491324E-019
  -13.440000000000001          6.7700285954729000E-019
  -13.380000000000001          7.8874127419657703E-019
  -13.320000000000000          8.9514360809126747E-019
  -13.260000000000000          9.9127270455526312E-019
  -13.200000000000001          1.0715843026002165E-018
  -13.140000000000001          1.1300093191488569E-018
  -13.080000000000000          1.1600702881158153E-018
  -13.020000000000000          1.1550340177032058E-018
  -12.960000000000001          1.1081017686858659E-018
  -12.900000000000000          1.0126369983738606E-018
  -12.840000000000000          8.6242893492988112E-019
  -12.780000000000001          6.5198980811063939E-019
  -12.720000000000001          3.7688128980960885E-019
  -12.660000000000000          3.4063737443325081E-020
  -12.600000000000000         -3.7774021580607133E-019
  -12.540000000000001         -8.5767711477752965E-019
  -12.480000000000000         -1.4024005332214055E-018
  -12.420000000000000         -2.0057302984429928E-018
  -12.360000000000001         -2.6583469588108486E-018
  -12.300000000000001         -3.3475396257809271E-018
  -12.240000000000000         -4.0570215265822755E-018
  -12.180000000000000         -4.7668364414598169E-018
  -12.120000000000001         -5.4533685292796100E-018
  -12.060000000000000         -6.0894780743865217E-018
  -12.000000000000000         -6.6447774974041497E-018
  -11.940000000000001         -7.0860609742848079E-018
  -11.880000000000001         -7.3779022763672389E-018
  -11.820000000000000         -7.4834251029876400E-018
  -11.760000000000000         -7.3652560885768002E-018
  -11.700000000000001         -6.9866512790244478E-018
  -11.640000000000001         -6.3127956254748797E-018
  -11.580000000000000         -5.3122554824411835E-018
  -11.520000000000000         -3.9585683254061496E-018
  -11.460000000000001         -2.2319369941472862E-018
  -11.400000000000000         -1.2099143433264047E-019
  -11.340000000000000          2.3754264341821182E-018
  -11.280000000000001          5.2465053983637713E-018
  -11.220000000000001          8.4677963693252957E-018
  -11.160000000000000          1.1999707717878670E-017
  -11.100000000000000          1.5786218934945650E-017
  -11.040000000000001          1.9753910277140705E-017
  -10.980000000000000          2.3811366007633463E-017
  -10.920000000000000          2.7849046133739367E-017
  -10.860000000000001          3.1739690316073188E-017
  -10.800000000000001          3.5339340215303758E-017
  -10.740000000000000          3.8489023637468068E-017
  -10.680000000000000          4.1017171266506585E-017
  -10.620000000000001          4.2742785915194696E-017
  -10.560000000000000          4.3479403329776682E-017
  -10.500000000000000          4.3039833449106657E-017
  -10.440000000000001          4.1241647457385061E-017
  -10.380000000000001          3.7913387442199123E-017
  -10.320000000000000          3.2901397832576569E-017
  -10.260000000000000          2.6077161697476778E-017
  -10.200000000000001          1.7345040566308361E-017
  -10.140000000000001          6.6501967837402279E-018
  -10.080000000000000         -6.0134851293009268E-018
  -10.020000000000001         -2.0595680436516212E-017
  -9.9600000000000009         -3.6982418683153302E-017
  -9.9000000000000004         -5.4989667260689805E-017
  -9.8399999999999999         -7.4357933437067080E-017
  -9.7800000000000011         -9.4748306747215585E-017
  -9.7200000000000006         -1.1574017075227571E-016
  -9.6600000000000001         -1.3683088448570695E-016
  -9.6000000000000014         -1.5743784082556951E-016
  -9.5400000000000009         -1.7690303426240563E-016
  -9.4800000000000004         -1.9450046476621562E-016
  -9.4199999999999999         -2.0944651572585056E-016
  -9.3600000000000012         -2.2091342327098645E-016
  -9.3000000000000007         -2.2804598284723642E-016
  -9.2400000000000002         -2.2998137030104499E-016
  -9.1799999999999997         -2.2587197506915554E-016
  -9.1200000000000010         -2.1491107139732293E-016
  -9.0600000000000005         -1.9636097695822536E-016
  -9.0000000000000000         -1.6958331273496876E-016
  -8.9400000000000013         -1.3407063121687269E-016
  -8.8800000000000008         -8.9479089481833502E-017
  -8.8200000000000003         -3.5660883639147353E-017
  -8.7599999999999998          2.7303830940511225E-017
  -8.7000000000000011          9.9077017857321814E-017
  -8.6400000000000006          1.7903560519787131E-016
  -8.5800000000000001          2.6624836034744697E-016
  -8.5200000000000014          3.5945780435298262E-016
  -8.4600000000000009          4.5706842803643886E-016
  -8.4000000000000004          5.5714237977685884E-016
  -8.3399999999999999          6.5740356771127425E-016
  -8.2800000000000011          7.5525118881905055E-016
  -8.2200000000000006          8.4778388389031147E-016
  -8.1600000000000001          9.3183466076885061E-016
  -8.1000000000000014          1.0040175608106657E-015
  -8.0400000000000009          1.0607861998658096E-015
  -7.9800000000000004          1.0985040038457538E-015
  -7.9200000000000017          1.1135259060357686E-015
  -7.8599999999999994          1.1022911139640073E-015
  -7.8000000000000007          1.0614253996740991E-015
  -7.7400000000000020          9.8785188288575942E-016
  -7.6799999999999997          8.7890860511355068E-016
  -7.6200000000000010          7.3247017115157187E-016
  -7.5600000000000023          5.4707140404558586E-016
  -7.5000000000000000          3.2203006155961160E-016
  -7.4400000000000013          5.7564839406447850E-017
  -7.3799999999999990         -2.4509364140681967E-016
  -7.3200000000000003         -5.8360405846958945E-016
  -7.2600000000000016         -9.5443084579117055E-016
  -7.1999999999999993         -1.3527802475756453E-015
  -7.1400000000000006         -1.7725584301378900E-015
  -7.0800000000000018         -2.2063584910416609E-015
  -7.0199999999999996         -2.6454762719215828E-015
  -6.9600000000000009         -3.0799617755975425E-015
  -6.9000000000000021         -3.4987048898425194E-015
  -6.8399999999999999         -3.8895626479761580E-015
  -6.7800000000000011         -4.2395240774152073E-015
  -6.7199999999999989         -4.5349168491819265E-015
  -6.6600000000000001         -4.7616551679350787E-015
  -6.6000000000000014         -4.9055252630588893E-015
  -6.5399999999999991         -4.9525098218117135E-015
  -6.4800000000000004         -4.8891430739032607E-015
  -6.4200000000000017         -4.7028966415295861E-015
  -6.3599999999999994         -4.3825861964405152E-015
  -6.3000000000000007         -3.9187954188421010E-015
  -6.2400000000000020         -3.3043051123922455E-015
  -6.1799999999999997         -2.5345210110664731E-015
  -6.1200000000000010         -1.6078892151134677E-015
  -6.0600000000000023         -5.2628861536557863E-016
  -6.0000000000000000          7.0461403679099695E-016
  -5.9400000000000013          2.0750538265005939E-015
  -5.8799999999999990          3.5709208458311232E-015
  -5.8200000000000003          5.1735807022236883E-015
  -5.7600000000000016          6.8597829271005101E-015
  -5.6999999999999993          8.6016624211752006E-015
  -5.6400000000000006          1.0366845049389175E-014
  -5.5800000000000018          1.2118669659565839E-014
  -5.5199999999999996          1.3816530566409774E-014
  -5.4600000000000009          1.5416339577691028E-014
  -5.4000000000000021          1.6871127976731324E-014
  -5.3399999999999999          1.8131761976101414E-014
  -5.2800000000000011          1.9147798673385298E-014
  -5.2200000000000024          1.9868452185898053E-014
  -5.1600000000000001          2.0243667153169004E-014
  -5.1000000000000014          2.0225297053670001E-014
  -5.0399999999999991          1.9768360447548644E-014
  -4.9800000000000004          1.8832359488873099E-014
  -4.9200000000000017          1.7382632470648206E-014
  -4.8599999999999994          1.5391727929625926E-014
  -4.8000000000000007          1.2840756291454309E-014
  -4.7400000000000020          9.7206969122646533E-015
  -4.6799999999999997          6.0336318873239864E-015
  -4.6200000000000010          1.7938558279443999E-015
  -4.5600000000000023         -2.9711522217883143E-015
  -4.5000000000000000         -8.2199473407038330E-015
  -4.4400000000000013         -1.3896544436626121E-014
  -4.3799999999999990         -1.9930114523893620E-014
  -4.3200000000000003         -2.6234932106772425E-014
  -4.2600000000000016         -3.2710660338925607E-014
  -4.1999999999999993         -3.9242936550563097E-014
  -4.1400000000000006         -4.5704345740359222E-014
  -4.0800000000000018         -5.1955712069888307E-014
  -4.0199999999999996         -5.7847776381590571E-014
  -3.9600000000000009         -6.3223263262483969E-014
  -3.9000000000000021         -6.7919268184269206E-014
  -3.8399999999999999         -7.1770001526380540E-014
  -3.7800000000000011         -7.4609852422557217E-014
  -3.7200000000000024         -7.6276723565476532E-014
  -3.6600000000000001         -7.6615613209456840E-014
  -3.6000000000000014         -7.5482370151998350E-014
  -3.5399999999999991         -7.2747593206665077E-014
  -3.4800000000000004         -6.8300570407798636E-014
  -3.4200000000000017         -6.2053223172481930E-014
  -3.3599999999999994         -5.3943956259104926E-014
  -3.3000000000000007         -4.3941309181271386E-014
  -3.2400000000000020         -3.2047363385312244E-014
  -3.1799999999999997         -1.8300800008071694E-014
  -3.1200000000000010         -2.7794842806525583E-015
  -3.0600000000000023          1.4397442232960395E-014
  -3.0000000000000000          3.3068099049620537E-014
  -2.9400000000000013          5.3027134913986842E-014
  -2.8800000000000026          7.4025668974208847E-014
  -2.8200000000000003          9.5772170506115012E-014
  -2.7600000000000016          1.1793409695211046E-013
  -2.6999999999999993          1.4014059742614391E-013
  -2.6400000000000006          1.6198595109605095E-013
  -2.5800000000000018          1.8303412753029088E-013
  -2.5199999999999996          2.0282422066073034E-013
  -2.4600000000000009          2.2087672212109985E-013
  -2.4000000000000021          2.3670072052508411E-013
  -2.3399999999999999          2.4980189530436924E-013
  -2.2800000000000011          2.5969114327946906E-013
  -2.2200000000000024          2.6589382054143690E-013
  -2.1600000000000001          2.6795952448257826E-013
  -2.1000000000000014          2.6547205985895691E-013
  -2.0399999999999991          2.5805969717887259E-013
  -1.9800000000000004          2.4540536597226789E-013
  -1.9200000000000017          2.2725665316716407E-013
  -1.8599999999999994          2.0343544715159110E-013
  -1.8000000000000007          1.7384698868287559E-013
  -1.7400000000000020          1.3848815083911853E-013
  -1.6799999999999997          9.7454731694032293E-014
  -1.6200000000000010          5.0947561728270838E-014
  -1.5600000000000023         -7.2266625275174903E-016
  -1.5000000000000000         -5.7132255196585762E-014
  -1.4400000000000013         -1.1774291573539204E-013
  -1.3800000000000026         -1.8190203910912966E-013
  -1.3200000000000003         -2.4884492157051140E-013
  -1.2600000000000016         -3.1769906390544298E-013
  -1.1999999999999993         -3.8749049627518549E-013
  -1.1400000000000006         -4.5715215518157291E-013
  -1.0800000000000018         -5.2553463423186901E-013
  -1.0199999999999996         -5.9141874592885210E-013
 -0.96000000000000085         -6.5353008425175402E-013
 -0.90000000000000213         -7.1055558040006932E-013
 -0.83999999999999986         -7.6116158396140491E-013
 -0.78000000000000114         -8.0401387877117128E-013
 -0.72000000000000242         -8.3779845998883056E-013
 -0.66000000000000014         -8.6124354617870961E-013
 -0.60000000000000142         -8.7314260256503754E-013
 -0.53999999999999915         -8.7237745599770195E-013
 -0.48000000000000043         -8.5794170841157890E-013
 -0.42000000000000171         -8.2896370034662558E-013
 -0.35999999999999943         -7.8472909974691314E-013
 -0.30000000000000071         -7.2470226872303073E-013
 -0.24000000000000199         -6.4854637156967516E-013
 -0.17999999999999972         -5.5614167378976615E-013
 -0.12000000000000099         -4.4760174002100207E-013
  -6.0000000000002274E-002    -3.2328725463265320E-013
   0.0000000000000000         -1.8381681888944824E-013
   5.9999999999998721E-002    -3.0074722562887660E-014
  0.11999999999999744          1.3678425266133011E-013
  0.17999999999999972          3.1533438524833212E-013
  0.23999999999999844          5.0388166824796258E-013
  0.30000000000000071          7.0047055129688113E-013
  0.35999999999999943          9.0289507266910329E-013
  0.41999999999999815          1.1087135650209487E-012
  0.48000000000000043          1.3152677550584952E-012
  0.53999999999999915          1.5197055387146344E-012
  0.59999999999999787          1.7190075949803780E-012
  0.66000000000000014          1.9100182788544971E-012
  0.71999999999999886          2.0894790817820526E-012
  0.77999999999999758          2.2540657515616454E-012
  0.83999999999999986          2.4004282941356266E-012
  0.89999999999999858          2.5252330378159239E-012
  0.96000000000000085          2.6252068899229822E-012
   1.0199999999999996          2.6971831124945787E-012
   1.0799999999999983          2.7381483270797528E-012
   1.1400000000000006          2.7452897238727153E-012
   1.1999999999999993          2.7160429105193518E-012
   1.2599999999999980          2.6481380505477419E-012
   1.3200000000000003          2.5396458457463457E-012
   1.3799999999999990          2.3890218611075324E-012
   1.4399999999999977          2.1951474748693787E-012
   1.5000000000000000          1.9573698101695968E-012
   1.5599999999999987          1.6755364217893002E-012
   1.6199999999999974          1.3500271671591405E-012
   1.6799999999999997          9.8178194406266417E-013
   1.7399999999999984          5.7232210853882121E-013
   1.8000000000000007          1.2376876742900941E-013
   1.8599999999999994         -3.6114650493415833E-013
   1.9199999999999982         -8.7907638165024561E-013
   1.9800000000000004         -1.4260582470761995E-012
   2.0399999999999991         -1.9975229445568836E-012
   2.0999999999999979         -2.5883071712667872E-012
   2.1600000000000001         -3.1926783166627205E-012
   2.2199999999999989         -3.8043596000776471E-012
   2.2799999999999976         -4.4165679599917461E-012
   2.3399999999999999         -5.0220568598215879E-012
   2.3999999999999986         -5.6131659374083999E-012
   2.4599999999999973         -6.1818794594483276E-012
   2.5199999999999996         -6.7198896886617640E-012
   2.5799999999999983         -7.2186674945045458E-012
   2.6400000000000006         -7.6695399242570460E-012
   2.6999999999999993         -8.0637741995000599E-012
   2.7599999999999980         -8.3926641842644296E-012
   2.8200000000000003         -8.6476269728107226E-012
   2.8799999999999990         -8.8202995680903286E-012
   2.9399999999999977         -8.9026414286388856E-012
   3.0000000000000000         -8.8870400437666077E-012
   3.0599999999999987         -8.7664183656914688E-012
   3.1199999999999974         -8.5343454629430514E-012
   3.1799999999999997         -8.1851451732952399E-012
   3.2399999999999984         -7.7140073345566687E-012
   3.3000000000000007         -7.1170959112712059E-012
   3.3599999999999994         -6.3916547467218708E-012
   3.4199999999999982         -5.5361102086149767E-012
   3.4800000000000004         -4.5501698354269906E-012
   3.5399999999999991         -3.4349129831068228E-012
   3.5999999999999979         -2.1928753532804157E-012
   3.6600000000000001         -8.2812506017380656E-013
   3.7199999999999989          6.5367323874052639E-013
   3.7799999999999976          2.2452000869902893E-012
   3.8399999999999999          3.9374463838361677E-012
   3.8999999999999986          5.7196793550884869E-012
   3.9599999999999973          7.5794349254736519E-012
   4.0199999999999996          9.5025213773025883E-012
   4.0799999999999983          1.1473039984259901E-011
   4.1400000000000006          1.3473428593026682E-011
   4.1999999999999993          1.5484522089958661E-011
   4.2599999999999980          1.7485633053115056E-011
   4.3200000000000003          1.9454651052820954E-011
   4.3799999999999990          2.1368172025163637E-011
   4.4399999999999977          2.3201640686127892E-011
   4.5000000000000000          2.4929523600940085E-011
   4.5599999999999987          2.6525491842877841E-011
   4.6199999999999974          2.7962634290996777E-011
   4.6799999999999997          2.9213694445402673E-011
   4.7399999999999984          3.0251313885755767E-011
   4.7999999999999972          3.1048304230160035E-011
   4.8599999999999994          3.1577935254751323E-011
   4.9199999999999982          3.1814235455692416E-011
   4.9800000000000004          3.1732304727197142E-011
   5.0399999999999991          3.1308643921334425E-011
   5.0999999999999979          3.0521480395387683E-011
   5.1600000000000001          2.9351113646705006E-011
   5.2199999999999989          2.7780249111627702E-011
   5.2799999999999976          2.5794346426527996E-011
   5.3399999999999999          2.3381938943101699E-011
   5.3999999999999986          2.0534974391238501E-011
   5.4599999999999973          1.7249117939472516E-011
   5.5199999999999996          1.3524060917948447E-011
   5.5799999999999983          9.3637910030315990E-012
   5.6400000000000006          4.7768445993514091E-012
   5.6999999999999993         -2.2344911918934389E-013
   5.7599999999999980         -5.6187923107267746E-012
   5.8200000000000003         -1.1385735377517062E-011
   5.8799999999999990         -1.7495571305619804E-011
   5.9399999999999977         -2.3914233338514430E-011
   6.0000000000000000         -3.0602277080557057E-011
   6.0599999999999987         -3.7514866526505060E-011
   6.1199999999999974         -4.4601847696691436E-011
   6.1799999999999997         -5.1807850776336948E-011
   6.2399999999999984         -5.9072435009465699E-011
   6.2999999999999972         -6.6330339177023683E-011
   6.3599999999999994         -7.3511725698677737E-011
   6.4199999999999982         -8.0542514991758462E-011
   6.4800000000000004         -8.7344765979996049E-011
   6.5399999999999991         -9.3837111716723762E-011
   6.5999999999999979         -9.9935266858854974E-011
   6.6600000000000001         -1.0555254392843096E-010
   6.7199999999999989         -1.1060049942374527E-010
   6.7799999999999976         -1.1498953542363345E-010
   6.8399999999999999         -1.1862960251818269E-010
   6.8999999999999986         -1.2143097091899936E-010
   6.9599999999999973         -1.2330496892289668E-010
   7.0199999999999996         -1.2416482704866807E-010
   7.0799999999999983         -1.2392652669169606E-010
   7.1400000000000006         -1.2250967524909151E-010
   7.1999999999999993         -1.1983841044868305E-010
   7.2599999999999980         -1.1584232448709880E-010
   7.3200000000000003         -1.1045739633802858E-010
   7.3799999999999990         -1.0362695516692740E-010
   7.4399999999999977         -9.5302600896150206E-011
   7.5000000000000000         -8.5445165120696502E-011
   7.5599999999999987         -7.4025656071800752E-011
   7.6199999999999974         -6.1026130761451029E-011
   7.6799999999999997         -4.6440619647497130E-011
   7.7399999999999984         -3.0276004710532034E-011
   7.7999999999999972         -1.2552782937817934E-011
   7.8599999999999994          6.6941076311157925E-012
   7.9199999999999982          2.7414612310683130E-011
   7.9800000000000004          4.9542874725709083E-011
   8.0399999999999991          7.2996662690603431E-011
   8.1000000000000014          9.7676895682226894E-011
   8.1599999999999966          1.2346716061708460E-010
   8.2199999999999989          1.5023348925285564E-010
   8.2800000000000011          1.7782406921377299E-010
   8.3399999999999963          2.0606921936126595E-010
   8.3999999999999986          2.3478137246189319E-010
   8.4600000000000009          2.6375530528787157E-010
   8.5199999999999960          2.9276838889124925E-010
   8.5799999999999983          3.2158101728902285E-010
   8.6400000000000006          3.4993737087266511E-010