  -24.000000000000000          0.0000000000000000     
  -23.940000000000001          0.0000000000000000     
  -23.879999999999999          0.0000000000000000     
  -23.820000000000000          0.0000000000000000     
  -23.760000000000002          0.0000000000000000     
  -23.699999999999999          0.0000000000000000     
  -23.640000000000001          0.0000000000000000     
  -23.579999999999998          0.0000000000000000     
  -23.520000000000000          0.0000000000000000     
  -23.460000000000001          0.0000000000000000     
  -23.399999999999999          0.0000000000000000     
  -23.340000000000000          0.0000000000000000     
  -23.280000000000001          0.0000000000000000     
  -23.219999999999999          0.0000000000000000     
  -23.160000000000000          0.0000000000000000     
  -23.100000000000001          0.0000000000000000     
  -23.039999999999999          0.0000000000000000     
  -22.980000000000000          0.0000000000000000     
  -22.920000000000002          0.0000000000000000     
  -22.859999999999999          0.0000000000000000     
  -22.800000000000001          0.0000000000000000     
  -22.739999999999998          0.0000000000000000     
  -22.680000000000000          0.0000000000000000     
  -22.620000000000001          0.0000000000000000     
  -22.559999999999999          0.0000000000000000     
  -22.500000000000000          0.0000000000000000     
  -22.440000000000001          0.0000000000000000     
  -22.379999999999999          0.0000000000000000     
  -22.320000000000000          0.0000000000000000     
  -22.260000000000002          0.0000000000000000     
  -22.199999999999999          0.0000000000000000     
  -22.140000000000001          0.0000000000000000     
  -22.079999999999998          0.0000000000000000     
  -22.020000000000000          0.0000000000000000     
  -21.960000000000001          0.0000000000000000     
  -21.899999999999999          0.0000000000000000     
  -21.840000000000000          0.0000000000000000     
  -21.780000000000001          0.0000000000000000     
  -21.719999999999999          0.0000000000000000     
  -21.660000000000000          0.0000000000000000     
  -21.600000000000001          0.0000000000000000     
  -21.539999999999999          0.0000000000000000     
  -21.480000000000000          0.0000000000000000     
  -21.420000000000002          0.0000000000000000     
  -21.359999999999999          0.0000000000000000     
  -21.300000000000001          0.0000000000000000     
  -21.240000000000002          0.0000000000000000     
  -21.180000000000000          0.0000000000000000     
  -21.120000000000001          0.0000000000000000     
  -21.059999999999999          0.0000000000000000     
  -21.000000000000000          0.0000000000000000     
  -20.940000000000001          0.0000000000000000     
  -20.879999999999999          0.0000000000000000     
  -20.820000000000000          0.0000000000000000     
  -20.760000000000002          0.0000000000000000     
  -20.699999999999999          0.0000000000000000     
  -20.640000000000001          0.0000000000000000     
  -20.579999999999998          0.0000000000000000     
  -20.520000000000000          0.0000000000000000     
  -20.460000000000001          0.0000000000000000     
  -20.399999999999999          0.0000000000000000     
  -20.340000000000000          0.0000000000000000     
  -20.280000000000001          0.0000000000000000     
  -20.219999999999999          0.0000000000000000     
  -20.160000000000000          0.0000000000000000     
  -20.100000000000001          0.0000000000000000     
  -20.039999999999999          0.0000000000000000     
  -19.980000000000000          0.0000000000000000     
  -19.920000000000002          0.0000000000000000     
  -19.859999999999999          0.0000000000000000     
  -19.800000000000001          0.0000000000000000     
  -19.740000000000002          0.0000000000000000     
  -19.680000000000000          0.0000000000000000     
  -19.620000000000001          0.0000000000000000     
  -19.560000000000002          0.0000000000000000     
  -19.500000000000000          0.0000000000000000     
  -19.440000000000001          0.0000000000000000     
  -19.379999999999999          0.0000000000000000     
  -19.320000000000000         -8.9802108174329405E-041
  -19.259999999999998         -3.3462023293349100E-040
  -19.199999999999999         -6.2471560334815051E-040
  -19.140000000000001         -1.0799261255126237E-039
  -19.079999999999998         -1.5804707761785199E-039
  -19.020000000000000         -2.4487158007292003E-039
  -18.960000000000001         -3.5950016372491264E-039
  -18.899999999999999         -5.0669879587224218E-039
  -18.840000000000000         -6.5868030148971687E-039
  -18.780000000000001         -8.2016423057738734E-039
  -18.719999999999999         -9.9063292372375138E-039
  -18.660000000000000         -1.1686112228581795E-038
  -18.600000000000001         -1.3057559327997880E-038
  -18.539999999999999         -1.4109769778403314E-038
  -18.480000000000000         -1.4864538494852568E-038
  -18.420000000000002         -1.5148866881571788E-038
  -18.359999999999999         -1.4128540521969993E-038
  -18.300000000000001         -1.2059567828275041E-038
  -18.240000000000002         -8.6888224986453125E-039
  -18.180000000000000         -2.6025194344777404E-039
  -18.120000000000001          6.3898831423894959E-039
  -18.060000000000002          1.8541810688887969E-038
  -18.000000000000000          3.3061173794054230E-038
  -17.940000000000001          5.0326284660131460E-038
  -17.879999999999999          7.0543611245957553E-038
  -17.820000000000000          9.3827478796728024E-038
  -17.759999999999998          1.1881854510043699E-037
  -17.699999999999999          1.4498338110293869E-037
  -17.640000000000001          1.6963663200163149E-037
  -17.579999999999998          1.9213271180125018E-037
  -17.520000000000000          2.1001022694036742E-037
  -17.460000000000001          2.2124886020339442E-037
  -17.399999999999999          2.2447499330934586E-037
  -17.340000000000000          2.1499666098725549E-037
  -17.280000000000001          1.8960838237383620E-037
  -17.219999999999999          1.4342126113926238E-037
  -17.160000000000000          7.1157620889982362E-038
  -17.100000000000001         -3.2824587119521585E-038
  -17.039999999999999         -1.7649060703830409E-037
  -16.980000000000000         -3.6352444040298504E-037
  -16.920000000000002         -5.9780109116618824E-037
  -16.859999999999999         -8.8050285154287511E-037
  -16.800000000000001         -1.2131657090921398E-036
  -16.740000000000002         -1.5781065322464742E-036
  -16.680000000000000         -1.9695852764731078E-036
  -16.620000000000001         -2.3802735219637012E-036
  -16.560000000000002         -2.7905069276773215E-036
  -16.500000000000000         -3.1727442642026724E-036
  -16.440000000000001         -3.4919919252447414E-036
  -16.379999999999999         -3.7081013595505107E-036
  -16.320000000000000         -3.7658817024289526E-036
  -16.260000000000002         -3.6044283372698094E-036
  -16.199999999999999         -3.1519217620741945E-036
  -16.140000000000001         -2.3257712415997330E-036
  -16.079999999999998         -1.0367948376509443E-036
  -16.020000000000000          8.1096096771615916E-037
  -15.960000000000001          3.3127197599994920E-036
  -15.900000000000000          6.5138966054596014E-036
  -15.840000000000000          1.0469694426967246E-035
  -15.780000000000001          1.5229775746538407E-035
  -15.720000000000001          2.0777479612037451E-035
  -15.660000000000000          2.7064543491866894E-035
  -15.600000000000000          3.3976794393635404E-035
  -15.540000000000001          4.1321013360621115E-035
  -15.480000000000000          4.8810639658302183E-035
  -15.420000000000000          5.6053299681091261E-035
  -15.359999999999999          6.2520994588029055E-035
  -15.300000000000001          6.7561399518001009E-035
  -15.240000000000000          7.0390106197581714E-035
  -15.180000000000000          7.0056718795719220E-035
  -15.120000000000001          6.5545392857116744E-035
  -15.060000000000000          5.5703033649191452E-035
  -15.000000000000000          3.9267230929414150E-035
  -14.940000000000000          1.4959442254260344E-035
  -14.880000000000001         -1.8454155414464296E-035
  -14.820000000000000         -6.2120385856086730E-035
  -14.760000000000000         -1.1696919431541027E-034
  -14.700000000000001         -1.8359582856337572E-034
  -14.640000000000001         -2.6212740896062718E-034
  -14.580000000000000         -3.5206683550845566E-034
  -14.520000000000000         -4.5210562234314491E-034
  -14.460000000000001         -5.5995838552171128E-034
  -14.400000000000000         -6.7217771093370442E-034
  -14.340000000000000         -7.8398374293393829E-034
  -14.280000000000001         -8.8909896494662825E-034
  -14.220000000000001         -9.7962032920229002E-034
  -14.160000000000000         -1.0459795145040148E-033
  -14.100000000000000         -1.0769091448947071E-033
  -14.040000000000001         -1.0595537803847192E-033
  -13.980000000000000         -9.7966169182266512E-034
  -13.920000000000000         -8.2192534260052150E-034
  -13.860000000000001         -5.7047000040535983E-034
  -13.800000000000001         -2.0951943618944547E-034
  -13.740000000000000          2.7574949579590904E-034
  -13.680000000000000          8.9815129786794903E-034
  -13.620000000000001          1.6672354236487266E-033
  -13.560000000000000          2.5878303138342902E-033
  -13.500000000000000          3.6584175982672272E-033
  -13.440000000000001          4.8693602941874211E-033
  -13.380000000000001          6.2010348488181512E-033
  -13.320000000000000          7.6219441787230009E-033
  -13.260000000000000          9.0868869534057447E-033
  -13.200000000000001          1.0535305027309912E-032
  -13.140000000000001          1.1889926654505803E-032
  -13.080000000000000          1.3055868992963403E-032
  -13.020000000000000          1.3920348702171472E-032
  -12.960000000000001          1.4353201838879933E-032
  -12.900000000000000          1.4208399801322313E-032
  -12.840000000000000          1.3326739774803807E-032
  -12.780000000000001          1.1539926209922597E-032
  -12.720000000000001          8.6761917033033476E-033
  -12.660000000000000          4.5675995394777549E-033
  -12.600000000000000         -9.4084939757334476E-034
  -12.540000000000001         -7.9803114172930260E-033
  -12.480000000000000         -1.6645386195785075E-032
  -12.420000000000000         -2.6979753627433919E-032
  -12.360000000000001         -3.8960403051112051E-032
  -12.300000000000001         -5.2480817274933415E-032
  -12.240000000000000         -6.7333632123850131E-032
  -12.180000000000000         -8.3193435928096746E-032
  -12.120000000000001         -9.9600560083130551E-032
  -12.060000000000000         -1.1594679465682455E-031
  -12.000000000000000         -1.3146428805859955E-031
  -11.940000000000001         -1.4521882872416920E-031
  -11.880000000000001         -1.5610894188560429E-031
  -11.820000000000000         -1.6287240681701357E-031
  -11.760000000000000         -1.6410161702877755E-031
  -11.700000000000001         -1.5826936220037779E-031
  -11.640000000000001         -1.4376655968855861E-031
  -11.580000000000000         -1.1895296210213339E-031
  -11.520000000000000         -8.2222145161720133E-032
  -11.460000000000001         -3.2081074844302116E-032
  -11.400000000000000          3.2755479898887024E-032
  -11.340000000000000          1.1325623959705115E-031
  -11.280000000000001          2.0995171353022423E-031
  -11.220000000000001          3.2280160349888077E-031
  -11.160000000000000          4.5105457753747059E-031
  -11.100000000000000          5.9310437838968947E-031
  -11.040000000000001          7.4634767581525172E-031
  -10.980000000000000          9.0705045634626205E-031
  -10.920000000000000          1.0702299780662154E-030
  -10.860000000000001          1.2295618060978320E-030
  -10.800000000000001          1.3773211246863199E-030
  -10.740000000000000          1.5043691097613469E-030
  -10.680000000000000          1.6001955394178498E-030
  -10.620000000000001          1.6530289709769647E-030
  -10.560000000000000          1.6500254202958587E-030
  -10.500000000000000          1.5775452994141987E-030
  -10.440000000000001          1.4215296032703536E-030
  -10.380000000000001          1.1679798080988434E-030
  -10.320000000000000          8.0354790089411258E-031
  -10.260000000000000          3.1623590984952291E-031
  -10.200000000000001         -3.0379806101683549E-031
  -10.140000000000001         -1.0633347814203747E-030
  -10.080000000000000         -1.9651072970685470E-030
  -10.020000000000001         -3.0067494084539830E-030
  -9.9600000000000009         -4.1797115243495159E-030
  -9.9000000000000004         -5.4681772019691704E-030
  -9.8399999999999999         -6.8480255813165012E-030
  -9.7800000000000011         -8.2858879249842862E-030
  -9.7200000000000006         -9.7383593146257230E-030
  -9.6600000000000001         -1.1151435113768792E-029
  -9.6000000000000014         -1.2460226547268374E-029
  -9.5400000000000009         -1.3589054007608208E-029
  -9.4800000000000004         -1.4451973602991853E-029
  -9.4199999999999999         -1.4953815688275155E-029
  -9.3600000000000012         -1.4991823365602521E-029
  -9.3000000000000007         -1.4457931383241530E-029
  -9.2400000000000002         -1.3241749890062368E-029
  -9.1799999999999997         -1.1234293351919792E-029
  -9.1200000000000010         -8.3324599180148400E-030
  -9.0600000000000005         -4.4442480402453642E-030
  -9.0000000000000000          5.0529980380012386E-031
  -8.9400000000000013          6.5675531882521656E-030
  -8.8800000000000008          1.3763204605649213E-029
  -8.8200000000000003          2.2074849509036063E-029
  -8.7599999999999998          3.1439397072849092E-029
  -8.7000000000000011          4.1740578123728860E-029
  -8.6400000000000006          5.2801865298660618E-029
  -8.5800000000000001          6.4380107740258144E-029
  -8.5200000000000014          7.6160320843864254E-029
  -8.4600000000000009          8.7752013393140828E-029
  -8.4000000000000004          9.8687523845078377E-029
  -8.3399999999999999          1.0842285640181455E-028
  -8.2800000000000011          1.1634144133448516E-028
  -8.2200000000000006          1.2176134031245538E-028
  -8.1600000000000001          1.2394627742309920E-028
  -8.1000000000000014          1.2212094631936839E-028
  -8.0400000000000009          1.1549077445761236E-028
  -7.9800000000000004          1.0326654353759068E-028
  -7.9200000000000017          8.4693667461501754E-029
  -7.8599999999999994          5.9086286958356352E-029
  -7.8000000000000007          2.5865763567039631E-029
  -7.7400000000000020         -1.5396814024662519E-029
  -7.6799999999999997         -6.4934968467259894E-029
  -7.6200000000000010         -1.2273883697466276E-028
  -7.5600000000000023         -1.8850613850175269E-028
  -7.5000000000000000         -2.6159364095564944E-028
  -7.4400000000000013         -3.4097091264365985E-028
  -7.3799999999999990         -4.2517829297793910E-028
  -7.3200000000000003         -5.1229156968390686E-028
  -7.2600000000000016         -5.9989565571408864E-028
  -7.1999999999999993         -6.8507011977591485E-028
  -7.1400000000000006         -7.6438907228690329E-028
  -7.0800000000000018         -8.3393864406287563E-028
  -7.0199999999999996         -8.8935405672399828E-028
  -6.9600000000000009         -9.2587953671092596E-028
  -6.9000000000000021         -9.3845316530079279E-028
  -6.8399999999999999         -9.2181779067314243E-028
  -6.7800000000000011         -8.7066056881219111E-028
  -6.7199999999999989         -7.7978036292119051E-028
  -6.6600000000000001         -6.4428410503500036E-028
  -6.6000000000000014         -4.5980901187748303E-028
  -6.5399999999999991         -2.2277061568982677E-028
  -6.4800000000000004          6.9368961017420043E-029
  -6.4200000000000017          4.1781692868341039E-028
  -6.3599999999999994          8.2215580354908645E-028
  -6.3000000000000007          1.2800476487605887E-027
  -6.2400000000000020          1.7869469711704588E-027
  -6.1799999999999997          2.3358314323047347E-027
  -6.1200000000000010          2.9169633006753531E-027
  -6.0600000000000023          3.5176960062066549E-027
  -6.0000000000000000          4.1223370761336468E-027
  -5.9400000000000013          4.7120875852788586E-027
  -5.8799999999999990          5.2650661645903606E-027
  -5.8200000000000003          5.7564401072743329E-027
  -5.7600000000000016          6.1586735995125883E-027
  -5.6999999999999993          6.4419063528553435E-027
  -5.6400000000000006          6.5744750904524169E-027
  -5.5800000000000018          6.5235887096276604E-027
  -5.5199999999999996          6.2561576745705741E-027
  -5.4600000000000009          5.7397831614914731E-027
  -5.4000000000000021          4.9439031791669258E-027
  -5.3399999999999999          3.8410818495727971E-027
  -5.2800000000000011          2.4084372610475402E-027
  -5.2200000000000024          6.2917336654455174E-028
  -5.1600000000000001         -1.5057988092015965E-027
  -5.1000000000000014         -3.9961975954164796E-027
  -5.0399999999999991         -6.8307007123337870E-027
  -4.9800000000000004         -9.9853229613725365E-027
  -4.9200000000000017         -1.3421900051720846E-026
  -4.8599999999999994         -1.7086735438741260E-026
  -4.8000000000000007         -2.0909493631030615E-026
  -4.7400000000000020         -2.4802406096089716E-026
  -4.6799999999999997         -2.8659862934700009E-026
  -4.6200000000000010         -3.2358480933421340E-026
  -4.5600000000000023         -3.5757713250728818E-026
  -4.5000000000000000         -3.8701091966666516E-026
  -4.4400000000000013         -4.1018141345114142E-026
  -4.3799999999999990         -4.2527054948959596E-026
  -4.3200000000000003         -4.3038155889069260E-026
  -4.2600000000000016         -4.2358186362870017E-026
  -4.1999999999999993         -4.0295418748935046E-026
  -4.1400000000000006         -3.6665596861329191E-026
  -4.0800000000000018         -3.1298639898804934E-026
  -4.0199999999999996         -2.4046086831874465E-026
  -3.9600000000000009         -1.4789107058592568E-026
  -3.9000000000000021         -3.4470171354266791E-027
  -3.8399999999999999          1.0013898424696178E-026
  -3.7800000000000011          2.5571479157484143E-026
  -3.7200000000000024          4.3138921391726786E-026
  -3.6600000000000001          6.2556428921534470E-026
  -3.6000000000000014          8.3583605382966137E-026
  -3.5399999999999991          1.0589287550738843E-025
  -3.4800000000000004          1.2906437433779184E-025
  -3.4200000000000017          1.5258260799893222E-025
  -3.3599999999999994          1.7583529838888282E-025
  -3.3000000000000007          1.9811478622457510E-025
  -3.2400000000000020          2.1862238235662608E-025
  -3.1799999999999997          2.3647599126622786E-025
  -3.1200000000000010          2.5072126799907588E-025
  -3.0600000000000023          2.6034661973938235E-025
  -3.0000000000000000          2.6430227633436338E-025
  -2.9400000000000013          2.6152335542349534E-025
  -2.8800000000000026          2.5095709104030945E-025
  -2.8200000000000003          2.3159412971223107E-025
  -2.7600000000000016          2.0250336011397294E-025
  -2.6999999999999993          1.6287035011406428E-025
  -2.6400000000000006          1.1203843931938013E-025
  -2.5800000000000018          4.9552059979331691E-026
  -2.5199999999999996         -2.4798678900825570E-026
  -2.4600000000000009         -1.1093314710304178E-025
  -2.4000000000000021         -2.0843625488170230E-025
  -2.3399999999999999         -3.1651676219309503E-025
  -2.2800000000000011         -4.3396935508293985E-025
  -2.2200000000000024         -5.5914193283950945E-025
  -2.1600000000000001         -6.8990974604747265E-025
  -2.1000000000000014         -8.2365868555339431E-025
  -2.0399999999999991         -9.5727863636918423E-025
  -1.9800000000000004         -1.0871692037396773E-024
  -1.9200000000000017         -1.2092593750203253E-024
  -1.8599999999999994         -1.3190428023963659E-024
  -1.8000000000000007         -1.4116297007964104E-024
  -1.7400000000000020         -1.4818166527196163E-024
  -1.6799999999999997         -1.5241758108980104E-024
  -1.6200000000000010         -1.5331624650927394E-024
  -1.5600000000000023         -1.5032429448189664E-024
  -1.5000000000000000         -1.4290403379296114E-024
  -1.4400000000000013         -1.3054987875510785E-024
  -1.3800000000000026         -1.1280634068765643E-024
  -1.3200000000000003         -8.9287401581193889E-025
  -1.2600000000000016         -5.9697012194452945E-025
  -1.1999999999999993         -2.3850329438058611E-025
  -1.1400000000000006          1.8304917477639100E-025
  -1.0800000000000018          6.6667088415305975E-025
  -1.0199999999999996          1.2096024883682609E-024
 -0.96000000000000085          1.8071515887444156E-024
 -0.90000000000000213          2.4525236429951435E-024
 -0.83999999999999986          3.1366824229578253E-024
 -0.78000000000000114          3.8482451329419067E-024
 -0.72000000000000242          4.5734228126572728E-024
 -0.66000000000000014          5.2960111852339642E-024
 -0.60000000000000142          5.9974418109180587E-024
 -0.53999999999999915          6.6568984328098012E-024
 -0.48000000000000043          7.2515064172310866E-024
 -0.42000000000000171          7.7565999128594598E-024
 -0.35999999999999943          8.1460722210579295E-024
 -0.30000000000000071          8.3928109737606593E-024
 -0.24000000000000199          8.4692207308026648E-024
 -0.17999999999999972          8.3478290097674873E-024
 -0.12000000000000099          8.0019783072852470E-024
  -6.0000000000002274E-002     7.4065955319152250E-024
   0.0000000000000000          6.5390272495706369E-024
   5.9999999999998721E-002     5.3799393032899278E-024
  0.11999999999999744          3.9142578104384791E-024
  0.17999999999999972          2.1321428583545184E-024
  0.23999999999999844          2.9966978301794757E-026
  0.30000000000000071         -2.3887122800246409E-024
  0.35999999999999943         -5.1122231637635597E-024
  0.41999999999999815         -8.1199118339340067E-024
  0.48000000000000043         -1.1381365259388706E-023
  0.53999999999999915         -1.4855765938681529E-023
  0.59999999999999787         -1.8491393328650300E-023
  0.66000000000000014         -2.2225325952665174E-023
  0.71999999999999886         -2.5983353674768643E-023
  0.77999999999999758         -2.9680153452162705E-023
  0.83999999999999986         -3.3219736774863305E-023
  0.89999999999999858         -3.6496217527742397E-023
  0.96000000000000085         -3.9394911433645847E-023
   1.0199999999999996         -4.1793776201688565E-023
   1.0799999999999983         -4.3565237995230304E-023
   1.1400000000000006         -4.4578370731440641E-023
   1.1999999999999993         -4.4701451485556933E-023
   1.2599999999999980         -4.3804892580590425E-023
   1.3200000000000003         -4.1764482665488589E-023
   1.3799999999999990         -3.8464981842422868E-023
   1.4399999999999977         -3.3803952336142391E-023
   1.5000000000000000         -2.7695834668064611E-023
   1.5599999999999987         -2.0076168802642203E-023
   1.6199999999999974         -1.0905899489039944E-023
   1.6799999999999997         -1.7569828316194379E-025
   1.7399999999999984          1.2089831897130255E-023
   1.8000000000000007          2.5828160611275206E-023
   1.8599999999999994          4.0935127247499198E-023
   1.9199999999999982          5.7261707698068759E-023
   1.9800000000000004          7.4611331756704227E-023
   2.0399999999999991          9.2737904080077864E-023
   2.0999999999999979          1.1134468161625734E-022
   2.1600000000000001          1.3008409369407185E-022
   2.2199999999999989          1.4855864495558942E-022
   2.2799999999999976          1.6632307281458137E-022
   2.3399999999999999          1.8288774871520254E-022
   2.3999999999999986          1.9772358342927834E-022
   2.4599999999999973          2.1026832198115994E-022
   2.5199999999999996          2.1993443424961135E-022
   2.5799999999999983          2.2611849303583375E-022
   2.6400000000000006          2.2821219938284144E-022
   2.6999999999999993          2.2561480911436753E-022
   2.7599999999999980          2.1774705894699568E-022
   2.8200000000000003          2.0406636451278556E-022
   2.8799999999999990          1.8408318859501363E-022
   2.9399999999999977          1.5737834567493958E-022
   3.0000000000000000          1.2362105244252261E-022
   3.0599999999999987          8.2587314662514511E-023
   3.1199999999999974          3.4178458198993042E-023
   3.1799999999999997         -2.1560694560984318E-023
   3.2399999999999984         -8.4424321621832167E-023
   3.3000000000000007         -1.5402929098220430E-022
   3.3599999999999994         -2.2980054806261944E-022
   3.4199999999999982         -3.1095853897416971E-022
   3.4800000000000004         -3.9650941383324680E-022
   3.5399999999999991         -4.8523849725294576E-022
   3.5999999999999979         -5.7570726204368309E-022
   3.6600000000000001         -6.6625491999309489E-022
   3.7199999999999989         -7.5500428677271795E-022
   3.7799999999999976         -8.3987326194350665E-022
   3.8399999999999999         -9.1859172367943641E-022
   3.8999999999999986         -9.8872422359072524E-022
   3.9599999999999973         -1.0476990834018459E-021
   4.0199999999999996         -1.0928436918092834E-021
   4.0799999999999983         -1.1214262686276296E-021
   4.1400000000000006         -1.1307037872542337E-021
   4.1999999999999993         -1.1179763150319339E-021
   4.2599999999999980         -1.0806468120115328E-021
   4.3200000000000003         -1.0162864190658768E-021
   4.3799999999999990         -9.2270432016666184E-022
   4.4399999999999977         -7.9802108216203033E-022
   4.5000000000000000         -6.4074513938772405E-022
   4.5599999999999987         -4.4985081755547697E-022
   4.6199999999999974         -2.2485633104982444E-022
   4.6799999999999997          3.4099281950864594E-023
   4.7399999999999984          3.2618210460977063E-022
   4.7999999999999972          6.4979422244112226E-022
   4.8599999999999994          1.0025114549045165E-021
   4.9199999999999982          1.3810286240106094E-021
   4.9800000000000004          1.7811169582227337E-021
   5.0399999999999991          2.1975937383453207E-021
   5.0999999999999979          2.6243066313592580E-021
   5.1600000000000001          3.0541351648458373E-021
   5.2199999999999989          3.4790111620160497E-021
   5.2799999999999976          3.8899601318736449E-021
   5.3399999999999999          4.2771654714093107E-021
   5.3999999999999986          4.6300549250887545E-021
   5.4599999999999973          4.9374138964446724E-021
   5.5199999999999996          5.1875241701637942E-021
   5.5799999999999983          5.3683275646939662E-021
   5.6400000000000006          5.4676161404723343E-021
   5.6999999999999993          5.4732492755969609E-021
   5.7599999999999980          5.3733932480435453E-021
   5.8200000000000003          5.1567848952063598E-021
   5.8799999999999990          4.8130145072533712E-021
   5.9399999999999977          4.3328265584001461E-021
   6.0000000000000000          3.7084343532662717E-021
   6.0599999999999987          2.9338444512997553E-021
   6.1199999999999974          2.0051844015075532E-021
   6.1799999999999997          9.2102992996909382E-022
   6.2399999999999984         -3.1727417289247976E-022
   6.2999999999999972         -1.7053102988262404E-021
   6.3599999999999994         -3.2353017648220547E-021
   6.4199999999999982         -4.8958590634482270E-021
   6.4800000000000004         -6.6717625166240707E-021
   6.5399999999999991         -8.5437901059537988E-021
   6.5999999999999979         -1.0488600561551669E-020
   6.6600000000000001         -1.2478675552320188E-020
   6.7199999999999989         -1.4482338780979336E-020
   6.7799999999999976         -1.6463848204598592E-020
   6.8399999999999999         -1.8383576119241123E-020
   6.8999999999999986         -2.0198279990533911E-020
   6.9599999999999973         -2.1861474276399968E-020
   7.0199999999999996         -2.3323899957384684E-020
   7.0799999999999983         -2.4534104056537034E-020
   7.1400000000000006         -2.5439124376907295E-020
   7.1999999999999993         -2.5985276143693652E-020
   7.2599999999999980         -2.6119051768889154E-020
   7.3200000000000003         -2.5788110265417558E-020
   7.3799999999999990         -2.4942371687045412E-020
   7.4399999999999977         -2.3535185524461687E-020
   7.5000000000000000         -2.1524573934452089E-020
   7.5599999999999987         -1.8874537362510067E-020
   7.6199999999999974         -1.5556399913307723E-020
   7.6799999999999997         -1.1550176419206548E-020
   7.7399999999999984         -6.8459404601838638E-021
   7.7999999999999972         -1.4451653160233575E-021
   7.8599999999999994          4.6379829142850994E-021
   7.9199999999999982          1.1375424913570285E-020
   7.9800000000000004          1.8724073907674369E-020
   8.0399999999999991          2.6624871758418061E-020
   8.1000000000000014          3.5001990363202092E-020
   8.1599999999999966          4.3762263963436961E-020
   8.2199999999999989          5.2794848812484788E-020
   8.2800000000000011          6.1971151095582301E-020
   8.3399999999999963          7.1145066632910274E-020
   8.3999999999999986          8.0153569081700251E-020
   8.4600000000000009          8.8817625036029372E-020
   8.5199999999999960          9.6943537910385481E-020
   8.5799999999999983          1.0432466118488820E-019
   8.6400000000000006          1.1074355077772511E-019