  -24.000000000000000          0.0000000000000000     
  -23.940000000000001          0.0000000000000000     
  -23.879999999999999          0.0000000000000000     
  -23.820000000000000         -3.1331515782112495E-018
  -23.760000000000002         -2.1652296947191734E-017
  -23.699999999999999         -8.5022442588340481E-017
  -23.640000000000001         -2.4895935234811861E-016
  -23.579999999999998         -6.0393626036101775E-016
  -23.520000000000000         -1.2814921572150856E-015
  -23.460000000000001         -2.4566411795289769E-015
  -23.399999999999999         -4.3448215793206125E-015
  -23.340000000000000         -7.1921275845599024E-015
  -23.280000000000001         -1.1258058911481457E-014
  -23.219999999999999         -1.6790629959301972E-014
  -23.160000000000000         -2.3994430660747116E-014
  -23.100000000000001         -3.2993020094679665E-014
  -23.039999999999999         -4.3787871274116695E-014
  -22.980000000000000         -5.6216846229942041E-014
  -22.920000000000002         -6.9915858206039760E-014
  -22.859999999999999         -8.4287879296255170E-014
  -22.800000000000001         -9.8483681251363346E-014
  -22.739999999999998         -1.1139878723727965E-013
  -22.680000000000000         -1.2169084909607074E-013
  -22.620000000000001         -1.2782066283763157E-013
  -22.559999999999999         -1.2811967047143278E-013
  -22.500000000000000         -1.2088481802085954E-013
  -22.440000000000001         -1.0450047250687448E-013
  -22.379999999999999         -7.7585340630839779E-014
  -22.320000000000000         -3.9159792548860287E-014
  -22.260000000000002          1.1173085970016206E-014
  -22.199999999999999          7.3039951608941826E-014
  -22.140000000000001          1.4511504197791701E-013
  -22.079999999999998          2.2495393003613210E-013
  -22.020000000000000          3.0885773305916205E-013
  -21.960000000000001          3.9178062982670558E-013
  -21.899999999999999          4.6729494419634436E-013
  -21.840000000000000          5.2762775104912821E-013
  -21.780000000000001          5.6378024083259001E-013
  -21.719999999999999          5.6573968506076836E-013
  -21.660000000000000          5.2279150326680705E-013
  -21.600000000000001          4.2393277634374221E-013
  -21.539999999999999          2.5838798064635330E-013
  -21.480000000000000          1.6215757008365567E-014
  -21.420000000000002         -3.1099811831091246E-013
  -21.359999999999999         -7.2938972706383696E-013
  -21.300000000000001         -1.2420217124881511E-012
  -21.240000000000002         -1.8480822588429441E-012
  -21.180000000000000         -2.5421059175883260E-012
  -21.120000000000001         -3.3132598308710391E-012
  -21.059999999999999         -4.1447359653220281E-012
  -21.000000000000000         -5.0132949371219962E-012
  -20.940000000000001         -5.8890037770934231E-012
  -20.879999999999999         -6.7352138627692248E-012
  -20.820000000000000         -7.5088174457538954E-012
  -20.760000000000002         -8.1608169686086580E-012
  -20.699999999999999         -8.6372382454534186E-012
  -20.640000000000001         -8.8804017589508602E-012
  -20.579999999999998         -8.8305613661251585E-012
  -20.520000000000000         -8.4279065774956421E-012
  -20.460000000000001         -7.6149020915765817E-012
  -20.399999999999999         -6.3389323484947519E-012
  -20.340000000000000         -4.5552096141214034E-012
  -20.280000000000001         -2.2298586170347535E-012
  -20.219999999999999          6.5689037352793441E-013
  -20.160000000000000          4.1074979984608803E-012
  -20.100000000000001          8.1040181866419518E-012
  -20.039999999999999          1.2605221832716161E-011
  -19.980000000000000          1.7544082299503077E-011
  -19.920000000000002          2.2825713429717372E-011
  -19.859999999999999          2.8325976219174623E-011
  -19.800000000000001          3.3890780706167595E-011
  -19.740000000000002          3.9336277916449065E-011
  -19.680000000000000          4.4450033192194949E-011
  -19.620000000000001          4.8993245529078048E-011
  -19.560000000000002          5.2704091475404944E-011
  -19.500000000000000          5.5302271752243547E-011
  -19.440000000000001          5.6494698645694331E-011
  -19.379999999999999          5.5982329008656442E-011
  -19.320000000000000          5.3468135288637586E-011
  -19.259999999999998          4.8665990513652584E-011
  -19.199999999999999          4.1310466589544943E-011
  -19.140000000000001          3.1167279909240264E-011
  -19.079999999999998          1.8044116556356783E-011
  -19.020000000000000          1.8017402775900000E-012
  -18.960000000000001         -1.7635004380885043E-011
  -18.899999999999999         -4.0266632292886510E-011
  -18.840000000000000         -6.6009152160101714E-011
  -18.780000000000001         -9.4685226727676557E-011
  -18.719999999999999         -1.2601678414127919E-010
  -18.660000000000000         -1.5961936663555512E-010
  -18.600000000000001         -1.9499850568879354E-010
  -18.539999999999999         -2.3154845719983830E-010
  -18.480000000000000         -2.6855354415911987E-010
  -18.420000000000002         -3.0519239119630118E-010
  -18.359999999999999         -3.4054505418350932E-010
  -18.300000000000001         -3.7360322527012335E-010
  -18.240000000000002         -4.0328375634609097E-010
  -18.180000000000000         -4.2844503359503442E-010
  -18.120000000000001         -4.4790633842422961E-010
  -18.060000000000002         -4.6047021086352142E-010
  -18.000000000000000         -4.6494693733727221E-010
  -17.940000000000001         -4.6018137777611578E-010
  -17.879999999999999         -4.4508145653531814E-010
  -17.820000000000000         -4.1864776127948984E-010
  -17.759999999999998         -3.8000377691601375E-010
  -17.699999999999999         -3.2842619241922258E-010
  -17.640000000000001         -2.6337436788942077E-010
  -17.579999999999998         -1.8451860640342962E-010
  -17.520000000000000         -9.1766399473757491E-011
  -17.460000000000001          1.4714109830014886E-011
  -17.399999999999999          1.3447412620512760E-010
  -17.340000000000000          2.6676795216027013E-010
  -17.280000000000001          4.1054163070934624E-010
  -17.219999999999999          5.6442652672977902E-010
  -17.160000000000000          7.2673835506529953E-010
  -17.100000000000001          8.9548194101687551E-010
  -17.039999999999999          1.0683625610870674E-009
  -16.980000000000000          1.2428027738204503E-009
  -16.920000000000002          1.4159657498400517E-009
  -16.859999999999999          1.5847841572415724E-009
  -16.800000000000001          1.7459954919287031E-009
  -16.740000000000002          1.8961819241074408E-009
  -16.680000000000000          2.0318152050881789E-009
  -16.620000000000001          2.1493055926785063E-009
  -16.560000000000002          2.2450543615396170E-009
  -16.500000000000000          2.3155087870356351E-009
  -16.440000000000001          2.3572187267264768E-009
  -16.379999999999999          2.3668940441631608E-009
  -16.320000000000000          2.3414617518846843E-009
  -16.260000000000002          2.2781221502485180E-009
  -16.199999999999999          2.1744025922367014E-009
  -16.140000000000001          2.0282084733443512E-009
  -16.079999999999998          1.8378697875244259E-009
  -16.020000000000000          1.6021832135828575E-009
  -15.960000000000001          1.3204492699097796E-009
  -15.900000000000000          9.9250225262007963E-010
  -15.840000000000000          6.1873475830729120E-010
  -15.780000000000001          2.0011454509795189E-010
  -15.720000000000001         -2.6180573863002626E-010
  -15.660000000000000         -7.6488518763157553E-010
  -15.600000000000000         -1.3063997705146711E-009
  -15.540000000000001         -1.8830543604648739E-009
  -15.480000000000000         -2.4909999963190539E-009
  -15.420000000000000         -3.1258584972482279E-009
  -15.359999999999999         -3.7827547433182727E-009
  -15.300000000000001         -4.4563509708050810E-009
  -15.240000000000000         -5.1408880374204716E-009
  -15.180000000000000         -5.8302297501674614E-009
  -15.120000000000001         -6.5179126285326484E-009
  -15.060000000000000         -7.1971945144193759E-009
  -15.000000000000000         -7.8611082349536134E-009
  -14.940000000000000         -8.5025171763513977E-009
  -14.880000000000001         -9.1141699160544087E-009
  -14.820000000000000         -9.6887552015971117E-009
  -14.760000000000000         -1.0218959639583336E-008
  -14.700000000000001         -1.0697524214766898E-008
  -14.640000000000001         -1.1117297639112056E-008
  -14.580000000000000         -1.1471294323555022E-008
  -14.520000000000000         -1.1752749332778599E-008
  -14.460000000000001         -1.1955170636469573E-008
  -14.400000000000000         -1.2072397869455970E-008
  -14.340000000000000         -1.2098655511723476E-008
  -14.280000000000001         -1.2028610936477221E-008
  -14.220000000000001         -1.1857426859885756E-008
  -14.160000000000000         -1.1580823082426523E-008
  -14.100000000000000         -1.1195132583705815E-008
  -14.040000000000001         -1.0697361786430402E-008
  -13.980000000000000         -1.0085254321122602E-008
  -13.920000000000000         -9.3573515573189034E-009
  -13.860000000000001         -8.5130566602962138E-009
  -13.800000000000001         -7.5526996763391075E-009
  -13.740000000000000         -6.4776012395932461E-009
  -13.680000000000000         -5.2901367116075504E-009
  -13.620000000000001         -3.9937978864463158E-009
  -13.560000000000000         -2.5932502782345492E-009
  -13.500000000000000         -1.0943906678253933E-009
  -13.440000000000001          4.9560752542889506E-010
  -13.380000000000001          2.1682489205112691E-009
  -13.320000000000000          3.9136859077889116E-009
  -13.260000000000000          5.7207002866137436E-009
  -13.200000000000001          7.5766892187630147E-009
  -13.140000000000001          9.4676746504455613E-009
  -13.080000000000000          1.1378327060673409E-008
  -13.020000000000000          1.3292003041572973E-008
  -12.960000000000001          1.5190804779703996E-008
  -12.900000000000000          1.7055663194210976E-008
  -12.840000000000000          1.8866437234186394E-008
  -12.780000000000001          2.0602035154677414E-008
  -12.720000000000001          2.2240566062328993E-008
  -12.660000000000000          2.3759498630875831E-008
  -12.600000000000000          2.5135855444155471E-008
  -12.540000000000001          2.6346414388859634E-008
  -12.480000000000000          2.7367938918800455E-008
  -12.420000000000000          2.8177412716010629E-008
  -12.360000000000001          2.8752301194345911E-008
  -12.300000000000001          2.9070805644721977E-008
  -12.240000000000000          2.9112142077350538E-008
  -12.180000000000000          2.8856807340519526E-008
  -12.120000000000001          2.8286854198777897E-008
  -12.060000000000000          2.7386149818097589E-008
  -12.000000000000000          2.6140637849008254E-008
  -11.940000000000001          2.4538574144541159E-008
  -11.880000000000001          2.2570750123734937E-008
  -11.820000000000000          2.0230685943493436E-008
  -11.760000000000000          1.7514808093457661E-008
  -11.700000000000001          1.4422578951349018E-008
  -11.640000000000001          1.0956614425239992E-008
  -11.580000000000000          7.1227461591579114E-009
  -11.520000000000000          2.9300577906782798E-009
  -11.460000000000001         -1.6091196814056956E-009
  -11.400000000000000         -6.4792620700100744E-009
  -11.340000000000000         -1.1661735611857595E-008
  -11.280000000000001         -1.7134899519379446E-008
  -11.220000000000001         -2.2874287825647998E-008
  -11.160000000000000         -2.8852787394950296E-008
  -11.100000000000000         -3.5040839982843683E-008
  -11.040000000000001         -4.1406709616955702E-008
  -10.980000000000000         -4.7916713932618866E-008
  -10.920000000000000         -5.4535510502197618E-008
  -10.860000000000001         -6.1226345312366113E-008
  -10.800000000000001         -6.7951354948680009E-008
  -10.740000000000000         -7.4671809721496832E-008
  -10.680000000000000         -8.1348373496945149E-008
  -10.620000000000001         -8.7941309775628509E-008
  -10.560000000000000         -9.4410691286504184E-008
  -10.500000000000000         -1.0071653973261760E-007
  -10.440000000000001         -1.0681896735326905E-007
  -10.380000000000001         -1.1267820269883135E-007
  -10.320000000000000         -1.1825465658585012E-007
  -10.260000000000000         -1.2350883759276947E-007
  -10.200000000000001         -1.2840127931884032E-007
  -10.140000000000001         -1.3289232447709084E-007
  -10.080000000000000         -1.3694195908005752E-007
  -10.020000000000001         -1.4050953302765349E-007
  -9.9600000000000009         -1.4355337015015902E-007
  -9.9000000000000004         -1.4603041508320988E-007
  -9.8399999999999999         -1.4789574013616872E-007
  -9.7800000000000011         -1.4910210462166756E-007
  -9.7200000000000006         -1.4959939708976850E-007
  -9.6600000000000001         -1.4933405988805534E-007
  -9.6000000000000014         -1.4824852815270268E-007
  -9.5400000000000009         -1.4628059957992951E-007
  -9.4800000000000004         -1.4336282807670182E-007
  -9.4199999999999999         -1.3942190607138613E-007
  -9.3600000000000012         -1.3437807467478567E-007
  -9.3000000000000007         -1.2814453168149442E-007
  -9.2400000000000002         -1.2062685876735513E-007
  -9.1799999999999997         -1.1172247159852545E-007
  -9.1200000000000010         -1.0132015594730916E-007
  -9.0600000000000005         -8.9299632152803884E-008
  -9.0000000000000000         -7.5531092953829170E-008
  -8.9400000000000013         -5.9874876862207329E-008
  -8.8800000000000008         -4.2181179261201257E-008
  -8.8200000000000003         -2.2289723555222474E-008
  -8.7599999999999998         -2.9631913913904494E-011
  -8.7000000000000011          2.4780760278177123E-008
  -8.6400000000000006          5.2334128492866057E-008
  -8.5800000000000001          8.2834060292860270E-008
  -8.5200000000000014          1.1649536737202817E-007
  -8.4600000000000009          1.5354409760926738E-007
  -8.4000000000000004          1.9421741982570181E-007
  -8.3399999999999999          2.3876380308711647E-007
  -8.2800000000000011          2.8744318500241319E-007
  -8.2200000000000006          3.4052715127495540E-007
  -8.1600000000000001          3.9829884636275066E-007
  -8.1000000000000014          4.6105327306158790E-007
  -8.0400000000000009          5.2909789778031591E-007
  -7.9800000000000004          6.0275259178345619E-007
  -7.9200000000000017          6.8235033185080156E-007
  -7.8599999999999994          7.6823790963439908E-007
  -7.8000000000000007          8.6077627788431235E-007
  -7.7400000000000020          9.6034198677714043E-007
  -7.6799999999999997          1.0673270583760604E-006
  -7.6200000000000010          1.1821410953850302E-006
  -7.5600000000000023          1.3052125764838251E-006
  -7.5000000000000000          1.4369890987330969E-006
  -7.4400000000000013          1.5779402322383623E-006
  -7.3799999999999990          1.7285582810396820E-006
  -7.3200000000000003          1.8893601662998873E-006
  -7.2600000000000016          2.0608900875558808E-006
  -7.1999999999999993          2.2437209478428199E-006
  -7.1400000000000006          2.4384560472409207E-006
  -7.0800000000000018          2.6457327126171236E-006
  -7.0199999999999996          2.8662235955179326E-006
  -6.9600000000000009          3.1006402255566147E-006
  -6.9000000000000021          3.3497340896532561E-006
  -6.8399999999999999          3.6143015556103420E-006
  -6.7800000000000011          3.8951838097744376E-006
  -6.7199999999999989          4.1932732671069742E-006
  -6.6600000000000001          4.5095130253725165E-006
  -6.6000000000000014          4.8449027590806760E-006
  -6.5399999999999991          5.2004990083231696E-006
  -6.4800000000000004          5.5774200799474214E-006
  -6.4200000000000017          5.9768497297630992E-006
  -6.3599999999999994          6.4000402409736042E-006
  -6.3000000000000007          6.8483124697872184E-006
  -6.2400000000000020          7.3230640278776315E-006
  -6.1799999999999997          7.8257700707281033E-006
  -6.1200000000000010          8.3579856327314001E-006
  -6.0600000000000023          8.9213519257121656E-006
  -6.0000000000000000          9.5175972263006798E-006
  -5.9400000000000013          1.0148547052371786E-005
  -5.8799999999999990          1.0816118350244745E-005
  -5.8200000000000003          1.1522329013547461E-005
  -5.7600000000000016          1.2269304577913377E-005
  -5.6999999999999993          1.3059275872731389E-005
  -5.6400000000000006          1.3894591027251718E-005
  -5.5800000000000018          1.4777710532997569E-005
  -5.5199999999999996          1.5711225501794662E-005
  -5.4600000000000009          1.6697847464788520E-005
  -5.4000000000000021          1.7740424438824398E-005
  -5.3399999999999999          1.8841945764684566E-005
  -5.2800000000000011          2.0005541111421427E-005
  -5.2200000000000024          2.1234498271750737E-005
  -5.1600000000000001          2.2532252399396282E-005
  -5.1000000000000014          2.3902410783795518E-005
  -5.0399999999999991          2.5348746793622325E-005
  -4.9800000000000004          2.6875214249228435E-005
  -4.9200000000000017          2.8485950073586968E-005
  -4.8599999999999994          3.0185289015863071E-005
  -4.8000000000000007          3.1977760746998866E-005
  -4.7400000000000020          3.3868112320109521E-005
  -4.6799999999999997          3.5861301981929501E-005
  -4.6200000000000010          3.7962522228079852E-005
  -4.5600000000000023          4.0177197423191081E-005
  -4.5000000000000000          4.2510997589441804E-005
  -4.4400000000000013          4.4969860906173826E-005
  -4.3799999999999990          4.7559970108161340E-005
  -4.3200000000000003          5.0287805545499461E-005
  -4.2600000000000016          5.3160125952446036E-005
  -4.1999999999999993          5.6183992697875705E-005
  -4.1400000000000006          5.9366768958155601E-005
  -4.0800000000000018          6.2716156609283349E-005
  -4.0199999999999996          6.6240173755503085E-005
  -3.9600000000000009          6.9947204942933121E-005
  -3.9000000000000021          7.3845966268469692E-005
  -3.8399999999999999          7.7945576099346301E-005
  -3.7800000000000011          8.2255510647208835E-005
  -3.7200000000000024          8.6785676216633405E-005
  -3.6600000000000001          9.1546370286175088E-005
  -3.6000000000000014          9.6548306909669036E-005
  -3.5399999999999991          1.0180268094160998E-004
  -3.4800000000000004          1.0732111798318625E-004
  -3.4200000000000017          1.1311571970272126E-004
  -3.3599999999999994          1.1919906457777570E-004
  -3.3000000000000007          1.2558427060528336E-004
  -3.2400000000000020          1.3228494376932567E-004
  -3.1799999999999997          1.3931524892411501E-004
  -3.1200000000000010          1.4668990786559504E-004
  -3.0600000000000023          1.5442419107795230E-004
  -3.0000000000000000          1.6253397164045001E-004
  -2.9400000000000013          1.7103576405026020E-004
  -2.8800000000000026          1.7994666494029494E-004
  -2.8200000000000003          1.8928447046139045E-004
  -2.7600000000000016          1.9906757136432847E-004
  -2.6999999999999993          2.0931514068813799E-004
  -2.6400000000000006          2.2004695695421316E-004
  -2.5800000000000018          2.3128362345164078E-004
  -2.5199999999999996          2.4304641127663462E-004
  -2.4600000000000009          2.5535741323483622E-004
  -2.4000000000000021          2.6823953908152039E-004
  -2.3399999999999999          2.8171642341982399E-004
  -2.2800000000000011          2.9581259244224799E-004
  -2.2200000000000024          3.1055345023133602E-004
  -2.1600000000000001          3.2596524736764682E-004
  -2.1000000000000014          3.4207515156902611E-004
  -2.0399999999999991          3.5891123594507555E-004
  -1.9800000000000004          3.7650250636954728E-004
  -1.9200000000000017          3.9487896884751744E-004
  -1.8599999999999994          4.1407158355326432E-004
  -1.8000000000000007          4.3411238446698576E-004
  -1.7400000000000020          4.5503440572153985E-004
  -1.6799999999999997          4.7687175526537755E-004
  -1.6200000000000010          4.9965963274404505E-004
  -1.5600000000000023          5.2343426678943335E-004
  -1.5000000000000000          5.4823306249944536E-004
  -1.4400000000000013          5.7409458644819842E-004
  -1.3800000000000026          6.0105849650479715E-004
  -1.3200000000000003          6.2916570825981646E-004
  -1.2600000000000016          6.5845835882019491E-004
  -1.1999999999999993          6.8897983228216728E-004
  -1.1400000000000006          7.2077462592968740E-004
  -1.0800000000000018          7.5388863950735124E-004
  -1.0199999999999996          7.8836909952627559E-004
 -0.96000000000000085          8.2426434708191389E-004
 -0.90000000000000213          8.6162419978549128E-004
 -0.83999999999999986          9.0049994652847986E-004
 -0.78000000000000114          9.4094396170431684E-004
 -0.72000000000000242          9.8301016320994890E-004
 -0.66000000000000014          1.0267537863444622E-003
 -0.60000000000000142          1.0722316422784510E-003
 -0.53999999999999915          1.1195016733455555E-003
 -0.48000000000000043          1.1686235364008588E-003
 -0.42000000000000171          1.2196582312491181E-003
 -0.35999999999999943          1.2726682146918500E-003
 -0.30000000000000071          1.3277176920371487E-003
 -0.24000000000000199          1.3848717590928075E-003
 -0.17999999999999972          1.4441974442162733E-003
 -0.12000000000000099          1.5057631553258262E-003
  -6.0000000000002274E-002     1.5696389014795628E-003
   0.0000000000000000          1.6358961181465648E-003
   5.9999999999998721E-002     1.7046077071217940E-003
  0.11999999999999744          1.7758480739513062E-003
  0.17999999999999972          1.8496930342655265E-003
  0.23999999999999844          1.9262202447703927E-003
  0.30000000000000071          2.0055086007850931E-003
  0.35999999999999943          2.0876384298637776E-003
  0.41999999999999815          2.1726915366246467E-003
  0.48000000000000043          2.2607513492705457E-003
  0.53999999999999915          2.3519028165206036E-003
  0.59999999999999787          2.4462317944436121E-003
  0.66000000000000014          2.5438259936503994E-003
  0.71999999999999886          2.6447742590945699E-003
  0.77999999999999758          2.7491671193265997E-003
  0.83999999999999986          2.8570962817798498E-003
  0.89999999999999858          2.9686544624954068E-003
  0.96000000000000085          3.0839357148237847E-003
   1.0199999999999996          3.2030356217819145E-003
   1.0799999999999983          3.3260504217295598E-003
   1.1400000000000006          3.4530783672868026E-003
   1.1999999999999993          3.5842180308660494E-003
   1.2599999999999980          3.7195688452649187E-003
   1.3200000000000003          3.8592314706187157E-003
   1.3799999999999990          4.0033077648848900E-003
   1.4399999999999977          4.1519005205711054E-003
   1.5000000000000000          4.3051126572516375E-003
   1.5599999999999987          4.4630480234937459E-003
   1.6199999999999974          4.6258116016652607E-003
   1.6799999999999997          4.7935082056367396E-003
   1.7399999999999984          4.9662435009034242E-003
   1.8000000000000007          5.1441236057366193E-003
   1.8599999999999994          5.3272553339514337E-003
   1.9199999999999982          5.5157445349908671E-003
   1.9800000000000004          5.7096976764358497E-003
   2.0399999999999991          5.9092216193669580E-003
   2.0999999999999979          6.1144238111065152E-003
   2.1600000000000001          6.3254098518407209E-003
   2.2199999999999989          6.5422843490374376E-003
   2.2799999999999976          6.7651544778992434E-003
   2.3399999999999999          6.9941246902923485E-003
   2.3999999999999986          7.2292983055175352E-003
   2.4599999999999973          7.4707801283250752E-003
   2.5199999999999996          7.7186720325376898E-003
   2.5799999999999983          7.9730760451096425E-003
   2.6400000000000006          8.2340908583818130E-003
   2.6999999999999993          8.5018155973186384E-003
   2.7599999999999980          8.7763474400383932E-003
   2.8200000000000003          9.0577812405813959E-003
   2.8799999999999990          9.3462113084931270E-003
   2.9399999999999977          9.6417273024618656E-003
   3.0000000000000000          9.9444190031718546E-003
   3.0599999999999987          1.0254372807232202E-002
   3.1199999999999974          1.0571673051272393E-002
   3.1799999999999997          1.0896400807695182E-002
   3.2399999999999984          1.1228634731078921E-002
   3.3000000000000007          1.1568448825061273E-002
   3.3599999999999994          1.1915915065414725E-002
   3.4199999999999982          1.2271101243274513E-002
   3.4800000000000004          1.2634072516266760E-002
   3.5399999999999991          1.3004888728534470E-002
   3.5999999999999979          1.3383605806491321E-002
   3.6600000000000001          1.3770275652972511E-002
   3.7199999999999989          1.4164944991783699E-002
   3.7799999999999976          1.4567655051301143E-002
   3.8399999999999999          1.4978444651160968E-002
   3.8999999999999986          1.5397346385400523E-002
   3.9599999999999973          1.5824384370031152E-002
   4.0199999999999996          1.6259580350344565E-002
   4.0799999999999983          1.6702947893332078E-002
   4.1400000000000006          1.7154495276426953E-002
   4.1999999999999993          1.7614226145125700E-002
   4.2599999999999980          1.8082135413547591E-002
   4.3200000000000003          1.8558210186602451E-002
   4.3799999999999990          1.9042432014034584E-002
   4.4399999999999977          1.9534777861854116E-002
   4.5000000000000000          2.0035211363953042E-002
   4.5599999999999987          2.0543691094522178E-002
   4.6199999999999974          2.1060169456889266E-002
   4.6799999999999997          2.1584587564835833E-002
   4.7399999999999984          2.2116880492215746E-002
   4.7999999999999972          2.2656972096961658E-002
   4.8599999999999994          2.3204779341731582E-002
   4.9199999999999982          2.3760210814580070E-002
   4.9800000000000004          2.4323164433698315E-002
   5.0399999999999991          2.4893526897995004E-002
   5.0999999999999979          2.5471179003073677E-002
   5.1600000000000001          2.6055987946484400E-002
   5.2199999999999989          2.6647812856983963E-002
   5.2799999999999976          2.7246503468682556E-002
   5.3399999999999999          2.7851896893899091E-002
   5.3999999999999986          2.8463820656829390E-002
   5.4599999999999973          2.9082091297052040E-002
   5.5199999999999996          2.9706515799767210E-002
   5.5799999999999983          3.0336884817173126E-002
   5.6400000000000006          3.0972988068646859E-002
   5.6999999999999993          3.1614594931662160E-002
   5.7599999999999980          3.2261464107389476E-002
   5.8200000000000003          3.2913346953510628E-002
   5.8799999999999990          3.3569977625012036E-002
   5.9399999999999977          3.4231083048735352E-002
   6.0000000000000000          3.4896374966321315E-002
   6.0599999999999987          3.5565555881865336E-002
   6.1199999999999974          3.6238316475933410E-002
   6.1799999999999997          3.6914332466814588E-002
   6.2399999999999984          3.7593268915984905E-002
   6.2999999999999972          3.8274779720223764E-002
   6.3599999999999994          3.8958506245812867E-002
   6.4199999999999982          3.9644076889894152E-002
   6.4800000000000004          4.0331107138970590E-002
   6.5399999999999991          4.1019204405277142E-002
   6.5999999999999979          4.1707958142706385E-002
   6.6600000000000001          4.2396952112023482E-002
   6.7199999999999989          4.3085753989715522E-002
   6.7799999999999976          4.3773921417712552E-002
   6.8399999999999999          4.4461001203738727E-002
   6.8999999999999986          4.5146527028946871E-002
   6.9599999999999973          4.5830020615302454E-002
   7.0199999999999996          4.6510996871238268E-002
   7.0799999999999983          4.7188950425500226E-002
   7.1400000000000006          4.7863377118082570E-002
   7.1999999999999993          4.8533752839402443E-002
   7.2599999999999980          4.9199550933638744E-002
   7.3200000000000003          4.9860229220659733E-002
   7.3799999999999990          5.0515233736224727E-002
   7.4399999999999977          5.1164010268020158E-002
   7.5000000000000000          5.1805982402233379E-002
   7.5599999999999987          5.2440579373079235E-002
   7.6199999999999974          5.3067208405038646E-002
   7.6799999999999997          5.3685280516421595E-002
   7.7399999999999984          5.4294190255208097E-002
   7.7999999999999972          5.4893324881738474E-002
   7.8599999999999994          5.5482072812908907E-002
   7.9199999999999982          5.6059807575218994E-002
   7.9800000000000004          5.6625907788235598E-002
   8.0399999999999991          5.7179733774945542E-002
   8.1000000000000014          5.7720642709245276E-002
   8.1599999999999966          5.8247994111430328E-002
   8.2199999999999989          5.8761144537411873E-002
   8.2800000000000011          5.9259438637983608E-002
   8.3399999999999963          5.9742215709295020E-002
   8.3999999999999986          6.0208827441441605E-002
   8.4600000000000009          6.0658610750676419E-002
   8.5199999999999960          6.1090910760646586E-002
   8.5799999999999983          6.1505064300134270E-002
   8.6400000000000006          6.1900416804658777E-002