  -24.000000000000000          0.0000000000000000     
  -23.940000000000001          0.0000000000000000     
  -23.879999999999999          0.0000000000000000     
  -23.820000000000000          0.0000000000000000     
  -23.760000000000002          0.0000000000000000     
  -23.699999999999999          0.0000000000000000     
  -23.640000000000001          0.0000000000000000     
  -23.579999999999998          0.0000000000000000     
  -23.520000000000000          0.0000000000000000     
  -23.460000000000001          0.0000000000000000     
  -23.399999999999999          0.0000000000000000     
  -23.340000000000000          0.0000000000000000     
  -23.280000000000001          0.0000000000000000     
  -23.219999999999999          0.0000000000000000     
  -23.160000000000000          0.0000000000000000     
  -23.100000000000001          0.0000000000000000     
  -23.039999999999999          0.0000000000000000     
  -22.980000000000000          0.0000000000000000     
  -22.920000000000002          0.0000000000000000     
  -22.859999999999999          0.0000000000000000     
  -22.800000000000001          0.0000000000000000     
  -22.739999999999998          0.0000000000000000     
  -22.680000000000000          0.0000000000000000     
  -22.620000000000001          0.0000000000000000     
  -22.559999999999999          0.0000000000000000     
  -22.500000000000000          0.0000000000000000     
  -22.440000000000001          0.0000000000000000     
  -22.379999999999999          0.0000000000000000     
  -22.320000000000000          0.0000000000000000     
  -22.260000000000002          0.0000000000000000     
  -22.199999999999999          0.0000000000000000     
  -22.140000000000001          0.0000000000000000     
  -22.079999999999998          0.0000000000000000     
  -22.020000000000000          0.0000000000000000     
  -21.960000000000001          0.0000000000000000     
  -21.899999999999999          0.0000000000000000     
  -21.840000000000000          0.0000000000000000     
  -21.780000000000001          0.0000000000000000     
  -21.719999999999999          0.0000000000000000     
  -21.660000000000000          0.0000000000000000     
  -21.600000000000001          0.0000000000000000     
  -21.539999999999999          0.0000000000000000     
  -21.480000000000000          0.0000000000000000     
  -21.420000000000002          0.0000000000000000     
  -21.359999999999999          0.0000000000000000     
  -21.300000000000001          0.0000000000000000     
  -21.240000000000002          0.0000000000000000     
  -21.180000000000000          0.0000000000000000     
  -21.120000000000001          0.0000000000000000     
  -21.059999999999999          0.0000000000000000     
  -21.000000000000000          0.0000000000000000     
  -20.940000000000001          0.0000000000000000     
  -20.879999999999999          0.0000000000000000     
  -20.820000000000000          0.0000000000000000     
  -20.760000000000002          0.0000000000000000     
  -20.699999999999999          0.0000000000000000     
  -20.640000000000001          0.0000000000000000     
  -20.579999999999998          0.0000000000000000     
  -20.520000000000000          0.0000000000000000     
  -20.460000000000001          0.0000000000000000     
  -20.399999999999999          0.0000000000000000     
  -20.340000000000000          0.0000000000000000     
  -20.280000000000001          0.0000000000000000     
  -20.219999999999999          0.0000000000000000     
  -20.160000000000000          0.0000000000000000     
  -20.100000000000001          0.0000000000000000     
  -20.039999999999999          0.0000000000000000     
  -19.980000000000000          0.0000000000000000     
  -19.920000000000002          0.0000000000000000     
  -19.859999999999999          0.0000000000000000     
  -19.800000000000001          0.0000000000000000     
  -19.740000000000002          0.0000000000000000     
  -19.680000000000000          0.0000000000000000     
  -19.620000000000001          0.0000000000000000     
  -19.560000000000002          0.0000000000000000     
  -19.500000000000000          0.0000000000000000     
  -19.440000000000001          0.0000000000000000     
  -19.379999999999999          0.0000000000000000     
  -19.320000000000000          0.0000000000000000     
  -19.259999999999998          0.0000000000000000     
  -19.199999999999999          0.0000000000000000     
  -19.140000000000001          0.0000000000000000     
  -19.079999999999998          0.0000000000000000     
  -19.020000000000000          0.0000000000000000     
  -18.960000000000001          0.0000000000000000     
  -18.899999999999999          0.0000000000000000     
  -18.840000000000000          0.0000000000000000     
  -18.780000000000001          0.0000000000000000     
  -18.719999999999999          0.0000000000000000     
  -18.660000000000000          0.0000000000000000     
  -18.600000000000001          0.0000000000000000     
  -18.539999999999999          0.0000000000000000     
  -18.480000000000000          0.0000000000000000     
  -18.420000000000002          0.0000000000000000     
  -18.359999999999999          0.0000000000000000     
  -18.300000000000001          0.0000000000000000     
  -18.240000000000002          0.0000000000000000     
  -18.180000000000000          0.0000000000000000     
  -18.120000000000001          0.0000000000000000     
  -18.060000000000002          0.0000000000000000     
  -18.000000000000000          0.0000000000000000     
  -17.940000000000001          0.0000000000000000     
  -17.879999999999999          0.0000000000000000     
  -17.820000000000000          0.0000000000000000     
  -17.759999999999998          0.0000000000000000     
  -17.699999999999999          0.0000000000000000     
  -17.640000000000001          0.0000000000000000     
  -17.579999999999998          0.0000000000000000     
  -17.520000000000000          0.0000000000000000     
  -17.460000000000001          0.0000000000000000     
  -17.399999999999999          0.0000000000000000     
  -17.340000000000000          0.0000000000000000     
  -17.280000000000001          0.0000000000000000     
  -17.219999999999999          0.0000000000000000     
  -17.160000000000000          0.0000000000000000     
  -17.100000000000001          0.0000000000000000     
  -17.039999999999999          0.0000000000000000     
  -16.980000000000000          0.0000000000000000     
  -16.920000000000002          0.0000000000000000     
  -16.859999999999999          0.0000000000000000     
  -16.800000000000001          0.0000000000000000     
  -16.740000000000002          0.0000000000000000     
  -16.680000000000000          0.0000000000000000     
  -16.620000000000001          0.0000000000000000     
  -16.560000000000002          0.0000000000000000     
  -16.500000000000000          0.0000000000000000     
  -16.440000000000001          0.0000000000000000     
  -16.379999999999999          0.0000000000000000     
  -16.320000000000000          0.0000000000000000     
  -16.260000000000002          0.0000000000000000     
  -16.199999999999999          0.0000000000000000     
  -16.140000000000001          0.0000000000000000     
  -16.079999999999998          0.0000000000000000     
  -16.020000000000000          0.0000000000000000     
  -15.960000000000001          0.0000000000000000     
  -15.900000000000000          0.0000000000000000     
  -15.840000000000000          0.0000000000000000     
  -15.780000000000001          0.0000000000000000     
  -15.720000000000001          0.0000000000000000     
  -15.660000000000000          0.0000000000000000     
  -15.600000000000000          0.0000000000000000     
  -15.540000000000001          0.0000000000000000     
  -15.480000000000000          0.0000000000000000     
  -15.420000000000000          0.0000000000000000     
  -15.359999999999999          0.0000000000000000     
  -15.300000000000001          0.0000000000000000     
  -15.240000000000000          0.0000000000000000     
  -15.180000000000000          0.0000000000000000     
  -15.120000000000001          0.0000000000000000     
  -15.060000000000000          0.0000000000000000     
  -15.000000000000000          0.0000000000000000     
  -14.940000000000000          0.0000000000000000     
  -14.880000000000001          0.0000000000000000     
  -14.820000000000000          0.0000000000000000     
  -14.760000000000000          0.0000000000000000     
  -14.700000000000001          0.0000000000000000     
  -14.640000000000001          0.0000000000000000     
  -14.580000000000000          0.0000000000000000     
  -14.520000000000000          0.0000000000000000     
  -14.460000000000001          0.0000000000000000     
  -14.400000000000000          0.0000000000000000     
  -14.340000000000000          0.0000000000000000     
  -14.280000000000001          0.0000000000000000     
  -14.220000000000001          0.0000000000000000     
  -14.160000000000000          0.0000000000000000     
  -14.100000000000000          0.0000000000000000     
  -14.040000000000001          0.0000000000000000     
  -13.980000000000000          0.0000000000000000     
  -13.920000000000000          0.0000000000000000     
  -13.860000000000001          0.0000000000000000     
  -13.800000000000001          0.0000000000000000     
  -13.740000000000000          0.0000000000000000     
  -13.680000000000000          0.0000000000000000     
  -13.620000000000001          0.0000000000000000     
  -13.560000000000000          0.0000000000000000     
  -13.500000000000000          0.0000000000000000     
  -13.440000000000001          0.0000000000000000     
  -13.380000000000001          0.0000000000000000     
  -13.320000000000000          0.0000000000000000     
  -13.260000000000000          0.0000000000000000     
  -13.200000000000001          0.0000000000000000     
  -13.140000000000001          0.0000000000000000     
  -13.080000000000000          0.0000000000000000     
  -13.020000000000000          0.0000000000000000     
  -12.960000000000001          0.0000000000000000     
  -12.900000000000000          0.0000000000000000     
  -12.840000000000000          0.0000000000000000     
  -12.780000000000001          0.0000000000000000     
  -12.720000000000001          0.0000000000000000     
  -12.660000000000000          0.0000000000000000     
  -12.600000000000000          0.0000000000000000     
  -12.540000000000001          0.0000000000000000     
  -12.480000000000000          0.0000000000000000     
  -12.420000000000000          2.7239839149291571E-040
  -12.360000000000001          7.2983896221122873E-040
  -12.300000000000001          1.4215378305983939E-039
  -12.240000000000000          2.3412319976641402E-039
  -12.180000000000000          3.4780507532571159E-039
  -12.120000000000001          4.8717970397630920E-039
  -12.060000000000000          6.5588009885303649E-039
  -12.000000000000000          8.5694377783720240E-039
  -11.940000000000001          1.0925144008193929E-038
  -11.880000000000001          1.3634790937482706E-038
  -11.820000000000000          1.6690778534998658E-038
  -11.760000000000000          2.0065119959084010E-038
  -11.700000000000001          2.3693698831082412E-038
  -11.640000000000001          2.7538456217575350E-038
  -11.580000000000000          3.0206432925206108E-038
  -11.520000000000000          3.1055664775889729E-038
  -11.460000000000001          2.9819792360443608E-038
  -11.400000000000000          2.6913405678614925E-038
  -11.340000000000000          2.1112747843311301E-038
  -11.280000000000001          1.1902332966475999E-038
  -11.220000000000001         -9.3910220794134635E-040
  -11.160000000000000         -1.7246935207943211E-038
  -11.100000000000000         -3.6000374459959528E-038
  -11.040000000000001         -5.6932849158495133E-038
  -10.980000000000000         -7.9603596438767249E-038
  -10.920000000000000         -1.0341107200730460E-037
  -10.860000000000001         -1.2757217284187030E-037
  -10.800000000000001         -1.5159242797140194E-037
  -10.740000000000000         -1.7054244282421956E-037
  -10.680000000000000         -1.8334905331601087E-037
  -10.620000000000001         -1.9100589881298416E-037
  -10.560000000000000         -1.9529827666178156E-037
  -10.500000000000000         -1.9350408090548240E-037
  -10.440000000000001         -1.8679198268237880E-037
  -10.380000000000001         -1.7311948015801302E-037
  -10.320000000000000         -1.5181689436667364E-037
  -10.260000000000000         -1.2169987048749880E-037
  -10.200000000000001         -8.2114692914118916E-038
  -10.140000000000001         -3.1633986161571005E-038
  -10.080000000000000          2.9703571937123226E-038
  -10.020000000000001          1.0351635989915154E-037
  -9.9600000000000009          1.9006121567978851E-037
  -9.9000000000000004          2.9428869701464612E-037
  -9.8399999999999999          4.1100401546446484E-037
  -9.7800000000000011          5.3061966317818337E-037
  -9.7200000000000006          6.5584397791032975E-037
  -9.6600000000000001          7.7804774082052122E-037
  -9.6000000000000014          8.9069059280279109E-037
  -9.5400000000000009          9.8553297235220468E-037
  -9.4800000000000004          1.0540729304706033E-036
  -9.4199999999999999          1.0874844643208671E-036
  -9.3600000000000012          1.0688650178607223E-036
  -9.3000000000000007          9.9029172600859342E-037
  -9.2400000000000002          8.3997983045644514E-037
  -9.1799999999999997          6.0863970832446053E-037
  -9.1200000000000010          2.8778974301267436E-037
  -9.0600000000000005         -1.1964460272920261E-037
  -9.0000000000000000         -6.2092215882090568E-037
  -8.9400000000000013         -1.2129613505259558E-036
  -8.8800000000000008         -1.8829537725954370E-036
  -8.8200000000000003         -2.6249265299934492E-036
  -8.7599999999999998         -3.4363971676873202E-036
  -8.7000000000000011         -4.2817664933247206E-036
  -8.6400000000000006         -5.1259062684586058E-036
  -8.5800000000000001         -5.9315224617083105E-036
  -8.5200000000000014         -6.6517735198514198E-036
  -8.4600000000000009         -7.2331274193144928E-036
  -8.4000000000000004         -7.6114753557715048E-036
  -8.3399999999999999         -7.7187845394838949E-036
  -8.2800000000000011         -7.4902974916348195E-036
  -8.2200000000000006         -6.8414735074374618E-036
  -8.1600000000000001         -5.6883683126060068E-036
  -8.1000000000000014         -3.9832926928512774E-036
  -8.0400000000000009         -1.6555235900772925E-036
  -7.9800000000000004          1.3325981267417954E-036
  -7.9200000000000017          5.0131637136960938E-036
  -7.8599999999999994          9.3897184515707622E-036
  -7.8000000000000007          1.4448057840861307E-035
  -7.7400000000000020          2.0129320753191080E-035
  -7.6799999999999997          2.6329646539192816E-035
  -7.6200000000000010          3.2924089031445112E-035
  -7.5600000000000023          3.9746025338649418E-035
  -7.5000000000000000          4.6566509910889866E-035
  -7.4400000000000013          5.3097302559558855E-035
  -7.3799999999999990          5.9009496856788945E-035
  -7.3200000000000003          6.3912019647036954E-035
  -7.2600000000000016          6.7367481485095253E-035
  -7.1999999999999993          6.8919247376927319E-035
  -7.1400000000000006          6.8048468188299659E-035
  -7.0800000000000018          6.4190513653326297E-035
  -7.0199999999999996          5.6781071632329465E-035
  -6.9600000000000009          4.5276670788986381E-035
  -6.9000000000000021          2.9138990945673455E-035
  -6.8399999999999999          7.8971958177486202E-036
  -6.7800000000000011         -1.8817819401175734E-035
  -6.7199999999999989         -5.1293622071932640E-035
  -6.6600000000000001         -8.9650748165409038E-035
  -6.6000000000000014         -1.3379070055234512E-034
  -6.5399999999999991         -1.8337469150943656E-034
  -6.4800000000000004         -2.3777407386155248E-034
  -6.4200000000000017         -2.9604000873206925E-034
  -6.3599999999999994         -3.5686599289172290E-034
  -6.3000000000000007         -4.1855523520892854E-034
  -6.2400000000000020         -4.7899167793115591E-034
  -6.1799999999999997         -5.3563278045186594E-034
  -6.1200000000000010         -5.8550269904063735E-034
  -6.0600000000000023         -6.2521113067882339E-034
  -6.0000000000000000         -6.5101800643416983E-034
  -5.9400000000000013         -6.5881742219653832E-034
  -5.8799999999999990         -6.4426120174517103E-034
  -5.8200000000000003         -6.0285139780275411E-034
  -5.7600000000000016         -5.3007917781121069E-034
  -5.6999999999999993         -4.2157976333603836E-034
  -5.6400000000000006         -2.7333174078902950E-034
  -5.5800000000000018         -8.1867557029640614E-035
  -5.5199999999999996          1.5548333311598969E-034
  -5.4600000000000009          4.4032575812839505E-034
  -5.4000000000000021          7.7291700530588784E-034
  -5.3399999999999999          1.1518710428079180E-033
  -5.2800000000000011          1.5738559298772222E-033
  -5.2200000000000024          2.0332983448146173E-033
  -5.1600000000000001          2.5221082383413964E-033
  -5.1000000000000014          3.0294375088377471E-033
  -5.0399999999999991          3.5414770867590714E-033
  -4.9800000000000004          4.0413068545540724E-033
  -4.9200000000000017          4.5088601245146734E-033
  -4.8599999999999994          4.9209305633894810E-033
  -4.8000000000000007          5.2513778346039169E-033
  -4.7400000000000020          5.4713698158829724E-033
  -4.6799999999999997          5.5498352606888235E-033
  -4.6200000000000010          5.4540740902677114E-033
  -4.5600000000000023          5.1505272147910988E-033
  -4.5000000000000000          4.6057627241024333E-033
  -4.4400000000000013          3.7876346016310652E-033
  -4.3799999999999990          2.6666322110233768E-033
  -4.3200000000000003          1.2174161779988976E-033
  -4.2600000000000016         -5.7947036797319727E-034
  -4.1999999999999993         -2.7357710467474748E-033
  -4.1400000000000006         -5.2535554352599539E-033
  -4.0800000000000018         -8.1232086992491795E-033
  -4.0199999999999996         -1.1321397633775449E-032
  -3.9600000000000009         -1.4809103628599683E-032
  -3.9000000000000021         -1.8529788023857158E-032
  -3.8399999999999999         -2.2407766908021337E-032
  -3.7800000000000011         -2.6346905652563100E-032
  -3.7200000000000024         -3.0229729539469497E-032
  -3.6600000000000001         -3.3917058560190957E-032
  -3.6000000000000014         -3.7248284249321381E-032
  -3.5399999999999991         -4.0042394533205761E-032
  -3.4800000000000004         -4.2099866543606177E-032
  -3.4200000000000017         -4.3205519132971524E-032
  -3.3599999999999994         -4.3132417109822613E-032
  -3.3000000000000007         -4.1646915659049128E-032
  -3.2400000000000020         -3.8514875355663873E-032
  -3.1799999999999997         -3.3509078566143474E-032
  -3.1200000000000010         -2.6417848271157691E-032
  -3.0600000000000023         -1.7054796806269322E-032
  -3.0000000000000000         -5.2696385738275045E-033
  -2.9400000000000013          9.0401485668962042E-033
  -2.8800000000000026          2.5916892987084401E-032
  -2.8200000000000003          4.5329949937836740E-032
  -2.7600000000000016          6.7162752673508709E-032
  -2.6999999999999993          9.1200162172628458E-032
  -2.6400000000000006          1.1711654025649080E-031
  -2.5800000000000018          1.4446505506518904E-031
  -2.5199999999999996          1.7266875697504204E-031
  -2.4600000000000009          2.0101404830321134E-031
  -2.4000000000000021          2.2864714238765133E-031
  -2.3399999999999999          2.5457431932033766E-031
  -2.2800000000000011          2.7766633585358227E-031
  -2.2200000000000024          2.9666796672972519E-031
  -2.1600000000000001          3.1021309370152554E-031
  -2.1000000000000014          3.1684592926200550E-031
  -2.0399999999999991          3.1504888290115238E-031
  -1.9800000000000004          3.0327728042521782E-031
  -1.9200000000000017          2.8000125289080699E-031
  -1.8599999999999994          2.4375479691182417E-031
  -1.8000000000000007          1.9319164903071606E-031
  -1.7400000000000020          1.2714766198363842E-031
  -1.6799999999999997          4.4709011089604472E-032
  -1.6200000000000010         -5.4715035321841148E-032
  -1.5600000000000023         -1.7131580561386199E-031
  -1.5000000000000000         -3.0480739530661570E-031
  -1.4400000000000013         -4.5434884298425831E-031
  -1.3800000000000026         -6.1846924425088510E-031
  -1.3200000000000003         -7.9499809964987562E-031
  -1.2600000000000016         -9.8100380599980446E-031
  -1.1999999999999993         -1.1727437734433568E-030
  -1.1400000000000006         -1.3656294173306203E-030
  -1.0800000000000018         -1.5542099633696079E-030
  -1.0199999999999996         -1.7321780687152495E-030
 -0.96000000000000085         -1.8924015722609152E-030
 -0.90000000000000213         -2.0269851684444488E-030
 -0.83999999999999986         -2.1273633462526730E-030
 -0.78000000000000114         -2.1844306066493185E-030
 -0.72000000000000242         -2.1887083922117929E-030
 -0.66000000000000014         -2.1305517393642318E-030
 -0.60000000000000142         -2.0003966140955481E-030
 -0.53999999999999915         -1.7890473716778218E-030
 -0.48000000000000043         -1.4880023169250776E-030
 -0.42000000000000171         -1.0898163685515600E-030
 -0.35999999999999943         -5.8849492123097663E-031
 -0.30000000000000071          2.0087075812951739E-032
 -0.24000000000000199          7.3774467167812636E-031
 -0.17999999999999972          1.5635361851071329E-030
 -0.12000000000000099          2.4933150029322154E-030
  -6.0000000000002274E-002     3.5192980769108595E-030
   0.0000000000000000          4.6296608632570948E-030
   5.9999999999998721E-002     5.8081777128547023E-030
  0.11999999999999744          7.0339233356023184E-030
  0.17999999999999972          8.2810548835537269E-030
  0.23999999999999844          9.5186924508758939E-030
  0.30000000000000071          1.0710918343233308E-029
  0.35999999999999943          1.1816915746101709E-029
  0.41999999999999815          1.2791263013647014E-029
  0.48000000000000043          1.3584400429724537E-029
  0.53999999999999915          1.4143290705786527E-029
  0.59999999999999787          1.4412279039963528E-029
  0.66000000000000014          1.4334169880970762E-029
  0.71999999999999886          1.3851513014221282E-029
  0.77999999999999758          1.2908118277098999E-029
  0.83999999999999986          1.1450774853558770E-029
  0.89999999999999858          9.4311754449374163E-030
  0.96000000000000085          6.8080193268098117E-030
   1.0199999999999996          3.5492736089386973E-030
   1.0799999999999983         -3.6545111341035675E-031
   1.1400000000000006         -4.9424484775120419E-030
   1.1999999999999993         -1.0171436000618488E-029
   1.2599999999999980         -1.6023121003596421E-029
   1.3200000000000003         -2.2446876537672418E-029
   1.3799999999999990         -2.9368587995774314E-029
   1.4399999999999977         -3.6688805503359017E-029
   1.5000000000000000         -4.4281224578658741E-029
   1.5599999999999987         -5.1991657467643933E-029
   1.6199999999999974         -5.9637530632264029E-029
   1.6799999999999997         -6.7008081917917888E-029
   1.7399999999999984         -7.3865288115590659E-029
   1.8000000000000007         -7.9945642912873704E-029
   1.8599999999999994         -8.4962881269358714E-029
   1.9199999999999982         -8.8611726015157938E-029
   1.9800000000000004         -9.0572685495739394E-029
   2.0399999999999991         -9.0517976670794089E-029
   2.0999999999999979         -8.8118606783186821E-029
   2.1600000000000001         -8.3052565465058328E-029
   2.2199999999999989         -7.5014113826694735E-029
   2.2799999999999976         -6.3724124072992794E-029
   2.3399999999999999         -4.8941367227553367E-029
   2.3999999999999986         -3.0474556793904901E-029
   2.4599999999999973         -8.1950090159166475E-030
   2.5199999999999996          1.7950272978473681E-029
   2.5799999999999983          4.7925424905573885E-029
   2.6400000000000006          8.1592749438895779E-029
   2.6999999999999993          1.1870023583026362E-028
   2.7599999999999980          1.5887006308170948E-028
   2.8200000000000003          2.0158839415552924E-028
   2.8799999999999990          2.4619706091098935E-028
   2.9399999999999977          2.9188743865200046E-028
   3.0000000000000000          3.3769713511447184E-028
   3.0599999999999987          3.8250996928823770E-028
   3.1199999999999974          4.2505969307014139E-028
   3.1799999999999997          4.6393793996242133E-028
   3.2399999999999984          4.9760680137685964E-028
   3.3000000000000007          5.2441643385953548E-028
   3.3599999999999994          5.4262823361041493E-028
   3.4199999999999982          5.5044334898785260E-028
   3.4800000000000004          5.4603714476457210E-028
   3.5399999999999991          5.2759917690274861E-028
   3.5999999999999979          4.9337929604580111E-028
   3.6600000000000001          4.4173864874185534E-028
   3.7199999999999989          3.7120604154880670E-028
   3.7799999999999976          2.8053832223257923E-028
   3.8399999999999999          1.6878469686353985E-028
   3.8999999999999986          3.5353401505987969E-029
   3.9599999999999973         -1.1992043075966225E-028
   4.0199999999999996         -2.9670638531904887E-028
   4.0799999999999983         -4.9411253326121566E-028
   4.1400000000000006         -7.1062250422975499E-028
   4.1999999999999993         -9.4403771020461268E-028
   4.2599999999999980         -1.1914273546465712E-027
   4.3200000000000003         -1.4490880575140643E-027
   4.3799999999999990         -1.7125158202739960E-027
   4.4399999999999977         -1.9763921179480209E-027
   4.5000000000000000         -2.2345876603461016E-027
   4.5599999999999987         -2.4801841161930139E-027
   4.6199999999999974         -2.7055186843289744E-027
   4.6799999999999997         -2.9022516849631327E-027
   4.7399999999999984         -3.0614593735480060E-027
   4.7999999999999972         -3.1737541841149208E-027
   4.8599999999999994         -3.2294322617406004E-027
   4.9199999999999982         -3.2186504720796793E-027
   4.9800000000000004         -3.1316311422425601E-027
   5.0399999999999991         -2.9588957539039865E-027
   5.0999999999999979         -2.6915244037655333E-027
   5.1600000000000001         -2.3214413261975734E-027
   5.2199999999999989         -1.8417204846329629E-027
   5.2799999999999976         -1.2469106888660912E-027
   5.3399999999999999         -5.3337251732010109E-028
   5.3999999999999986          3.0037574442581372E-028
   5.4599999999999973          1.2533136882532556E-027
   5.5199999999999996          2.3215778154185158E-027
   5.5799999999999983          3.4981409096726640E-027
   5.6400000000000006          4.7725097202344556E-027
   5.6999999999999993          6.1304642193066521E-027
   5.7599999999999980          7.5538360555815920E-027
   5.8200000000000003          9.0203472948331410E-027
   5.8799999999999990          1.0503517751329501E-026
   5.9399999999999977          1.1972650830355277E-026
   6.0000000000000000          1.3392907204436840E-026
   6.0599999999999987          1.4725486867539914E-026
   6.1199999999999974          1.5927919505858746E-026
   6.1799999999999997          1.6954475451400434E-026
   6.2399999999999984          1.7756708364321207E-026
   6.2999999999999972          1.8284131605047058E-026
   6.3599999999999994          1.8485032735611554E-026
   6.4199999999999982          1.8307431636811596E-026
   6.4800000000000004          1.7700176798019437E-026
   6.5399999999999991          1.6614172032289584E-026
   6.5999999999999979          1.5003736853733259E-026
   6.6600000000000001          1.2828077841931031E-026
   6.7199999999999989          1.0052857569836788E-026
   6.7799999999999976          6.6518455218330546E-027
   6.8399999999999999          2.6086168710218290E-027
   6.8999999999999986         -2.0817073803432440E-027
   6.9599999999999973         -7.4107546380354870E-027
   7.0199999999999996         -1.3355217594190784E-026
   7.0799999999999983         -1.9875269079910920E-026
   7.1400000000000006         -2.6913111862358521E-026
   7.1999999999999993         -3.4391711659376060E-026
   7.2599999999999980         -4.2213750347213766E-026
   7.3200000000000003         -5.0260891502863572E-026
   7.3799999999999990         -5.8393354531413928E-026
   7.4399999999999977         -6.6449931596884806E-026
   7.5000000000000000         -7.4248399182967916E-026
   7.5599999999999987         -8.1586481774044024E-026
   7.6199999999999974         -8.8243331594688058E-026
   7.6799999999999997         -9.3981621219617250E-026
   7.7399999999999984         -9.8550245499027605E-026
   7.7999999999999972         -1.0168770331737616E-025
   7.8599999999999994         -1.0312612416429195E-025
   7.9199999999999982         -1.0259599059487944E-025
   7.9800000000000004         -9.9831559523366061E-026
   8.0399999999999991         -9.4576852707179365E-026
   8.1000000000000014         -8.6592348088678369E-026
   8.1599999999999966         -7.5662186717122439E-026
   8.2199999999999989         -6.1601857198808588E-026
   8.2800000000000011         -4.4266290070132504E-026
   8.3399999999999963         -2.3558194688899054E-026
   8.3999999999999986          5.6341061989644035E-028
   8.4600000000000009          2.8074801264264842E-026
   8.5199999999999960          5.8879163741946464E-026
   8.5799999999999983          9.2798783593807148E-026
   8.6400000000000006          1.2956768980018574E-025