  -24.000000000000000          0.0000000000000000     
  -23.940000000000001          0.0000000000000000     
  -23.879999999999999          0.0000000000000000     
  -23.820000000000000          0.0000000000000000     
  -23.760000000000002          0.0000000000000000     
  -23.699999999999999          0.0000000000000000     
  -23.640000000000001          0.0000000000000000     
  -23.579999999999998          0.0000000000000000     
  -23.520000000000000          0.0000000000000000     
  -23.460000000000001          0.0000000000000000     
  -23.399999999999999         -2.7328059474570828E-039
  -23.340000000000000         -1.6263939488349376E-038
  -23.280000000000001         -9.6540428666409664E-038
  -23.219999999999999         -4.8191726487355660E-037
  -23.160000000000000         -2.1715752090883269E-036
  -23.100000000000001         -8.4256262855147585E-036
  -23.039999999999999         -2.9028391361063658E-035
  -22.980000000000000         -9.0717180492116181E-035
  -22.920000000000002         -2.6093141351277279E-034
  -22.859999999999999         -6.9844106687448278E-034
  -22.800000000000001         -1.7550761448845939E-033
  -22.739999999999998         -4.1693260626558072E-033
  -22.680000000000000         -9.4178637695112396E-033
  -22.620000000000001         -2.0325381556844912E-032
  -22.559999999999999         -4.2079632229114592E-032
  -22.500000000000000         -8.3855718857023256E-032
  -22.440000000000001         -1.6131847059321697E-031
  -22.379999999999999         -3.0033723839727281E-031
  -22.320000000000000         -5.4229946607971662E-031
  -22.260000000000002         -9.5142744435486125E-031
  -22.199999999999999         -1.6244538647289480E-030
  -22.140000000000001         -2.7028587936089650E-030
  -22.079999999999998         -4.3875545892624771E-030
  -22.020000000000000         -6.9553686562840998E-030
  -21.960000000000001         -1.0775854774605837E-029
  -21.899999999999999         -1.6325784174303278E-029
  -21.840000000000000         -2.4197079048741898E-029
  -21.780000000000001         -3.5091948642030656E-029
  -21.719999999999999         -4.9796540697504495E-029
  -21.660000000000000         -6.9121634641904466E-029
  -21.600000000000001         -9.3795856155034865E-029
  -21.539999999999999         -1.2429434088983819E-028
  -21.480000000000000         -1.6058293755178891E-028
  -21.420000000000002         -2.0175692922851598E-028
  -21.359999999999999         -2.4555427617054791E-028
  -21.300000000000001         -2.8772503432080353E-028
  -21.240000000000002         -3.2124704596981257E-028
  -21.180000000000000         -3.3538791798942352E-028
  -21.120000000000001         -3.1463080478632374E-028
  -21.059999999999999         -2.3750449109608448E-028
  -21.000000000000000         -7.5392414021306264E-029
  -20.940000000000001          2.0857422366547689E-028
  -20.879999999999999          6.6037712847357903E-028
  -20.820000000000000          1.3355255007216190E-027
  -20.760000000000002          2.2987545635178053E-027
  -20.699999999999999          3.6226997509548446E-027
  -20.640000000000001          5.3851723934887794E-027
  -20.579999999999998          7.6646372582222740E-027
  -20.520000000000000          1.0533470615290000E-026
  -20.460000000000001          1.4048577398157585E-026
  -20.399999999999999          1.8239021407307332E-026
  -20.340000000000000          2.3090401218728151E-026
  -20.280000000000001          2.8525877414377799E-026
  -20.219999999999999          3.4384012142590490E-026
  -20.160000000000000          4.0393877897228449E-026
  -20.100000000000001          4.6148313565401872E-026
  -20.039999999999999          5.1076700163054008E-026
  -19.980000000000000          5.4419224356049197E-026
  -19.920000000000002          5.5205158753196104E-026
  -19.859999999999999          5.2238488131007623E-026
  -19.800000000000001          4.4094790750599699E-026
  -19.740000000000002          2.9133932595019546E-026
  -19.680000000000000          5.5337606645447846E-027
  -19.620000000000001         -2.8649858165219034E-026
  -19.560000000000002         -7.5391116591781717E-026
  -19.500000000000000         -1.3656515758835300E-025
  -19.440000000000001         -2.1377734595112507E-025
  -19.379999999999999         -3.0814794561044475E-025
  -19.320000000000000         -4.2005059052445416E-025
  -19.259999999999998         -5.4880670746078075E-025
  -19.199999999999999         -6.9234026156412308E-025
  -19.140000000000001         -8.4680254810440636E-025
  -19.079999999999998         -1.0061814592496988E-024
  -19.020000000000000         -1.1619148625879510E-024
  -18.960000000000001         -1.3025349524126695E-024
  -18.899999999999999         -1.4133762948999234E-024
  -18.840000000000000         -1.4763873593085906E-024
  -18.780000000000001         -1.4700896492414004E-024
  -18.719999999999999         -1.3697377726921237E-024
  -18.660000000000000         -1.1477316578922041E-024
  -18.600000000000001         -7.7433782173410752E-025
  -18.539999999999999         -2.1877469675234673E-025
  -18.480000000000000          5.4929143808245528E-025
  -18.420000000000002          1.5577992558937018E-024
  -18.359999999999999          2.8298690042201979E-024
  -18.300000000000001          4.3808998462993439E-024
  -18.240000000000002          6.2152089160173446E-024
  -18.180000000000000          8.3222663893938785E-024
  -18.120000000000001          1.0672617697793282E-023
  -18.060000000000002          1.3213638306287801E-023
  -18.000000000000000          1.5865287289586045E-023
  -17.940000000000001          1.8516115587783982E-023
  -17.879999999999999          2.1019806858137898E-023
  -17.820000000000000          2.3192598193891029E-023
  -17.759999999999998          2.4811957825680349E-023
  -17.699999999999999          2.5616954860510956E-023
  -17.640000000000001          2.5310767743174254E-023
  -17.579999999999998          2.3565803661852354E-023
  -17.520000000000000          2.0031854109939682E-023
  -17.460000000000001          1.4347724718695827E-023
  -17.399999999999999          6.1566736562218138E-024
  -17.340000000000000         -4.8741160593352406E-024
  -17.280000000000001         -1.9029905970783154E-023
  -17.219999999999999         -3.6520729864068034E-023
  -17.160000000000000         -5.7449961316145113E-023
  -17.100000000000001         -8.1779709671246002E-023
  -17.039999999999999         -1.0929388870889566E-022
  -16.980000000000000         -1.3956024424175338E-022
  -16.920000000000002         -1.7189276584155712E-022
  -16.859999999999999         -2.0531656165257817E-022
  -16.800000000000001         -2.3853732516666118E-022
  -16.740000000000002         -2.6991808027607710E-022
  -16.680000000000000         -2.9746621644683747E-022
  -16.620000000000001         -3.1883384240947205E-022
  -16.560000000000002         -3.3133466591497094E-022
  -16.500000000000000         -3.3198090088794651E-022
  -16.440000000000001         -3.1754325573805475E-022
  -16.379999999999999         -2.8463681950195740E-022
  -16.320000000000000         -2.2983524233964161E-022
  -16.260000000000002         -1.4981492787777689E-022
  -16.199999999999999         -4.1529711585773484E-023
  -16.140000000000001          9.7584226689947290E-023
  -16.079999999999998          2.6937567962827227E-022
  -16.020000000000000          4.7472087469408591E-022
  -15.960000000000001          7.1324756655203612E-022
  -15.900000000000000          9.8304760668276632E-022
  -15.840000000000000          1.2803880457879870E-021
  -15.780000000000001          1.5994335407320944E-021
  -15.720000000000001          1.9319927380354972E-021
  -15.660000000000000          2.2673070562187096E-021
  -15.600000000000000          2.5918982766205401E-021
  -15.540000000000001          2.8894956300911354E-021
  -15.480000000000000          3.1410628551981016E-021
  -15.420000000000000          3.3249455252635384E-021
  -15.359999999999999          3.4171605426681060E-021
  -15.300000000000001          3.3918447169361508E-021
  -15.240000000000000          3.2218805859010032E-021
  -15.180000000000000          2.8797124352475167E-021
  -15.120000000000001          2.3383581271035309E-021
  -15.060000000000000          1.5726210518169362E-021
  -15.000000000000000          5.6049554542419952E-022
  -14.940000000000000         -7.1525185172427067E-022
  -14.880000000000001         -2.2653453714490936E-021
  -14.820000000000000         -4.0921480793719275E-021
  -14.760000000000000         -6.1877393059406857E-021
  -14.700000000000001         -8.5319832727225587E-021
  -14.640000000000001         -1.1090663077626515E-020
  -14.580000000000000         -1.3813764918031045E-020
  -14.520000000000000         -1.6633997572174847E-020
  -14.460000000000001         -1.9465676289654864E-020
  -14.400000000000000         -2.2204058730509528E-020
  -14.340000000000000         -2.4725266768308970E-020
  -14.280000000000001         -2.6886911679837863E-020
  -14.220000000000001         -2.8529525005690596E-020
  -14.160000000000000         -2.9478930225112365E-020
  -14.100000000000000         -2.9549619595517269E-020
  -14.040000000000001         -2.8549234074129139E-020
  -13.980000000000000         -2.6284181351664879E-020
  -13.920000000000000         -2.2566431122057159E-020
  -13.860000000000001         -1.7221436108257631E-020
  -13.800000000000001         -1.0097137208066963E-020
  -13.740000000000000         -1.0739265931797456E-021
  -13.680000000000000          9.9245959603716344E-021
  -13.620000000000001          2.2920331440124870E-020
  -13.560000000000000          3.7869087692162626E-020
  -13.500000000000000          5.4649138116892616E-020
  -13.440000000000001          7.3050237133719975E-020
  -13.380000000000001          9.2763681255879521E-020
  -13.320000000000000          1.1337383828767833E-019
  -13.260000000000000          1.3435180345880605E-019
  -13.200000000000001          1.5505173213451222E-019
  -13.140000000000001          1.7471046819047974E-019
  -13.080000000000000          1.9245111504696049E-019
  -13.020000000000000          2.0729105691581991E-019
  -12.960000000000001          2.1815509221060149E-019
  -12.900000000000000          2.2389398120892120E-019
  -12.840000000000000          2.2330896113365971E-019
  -12.780000000000001          2.1518221799114603E-019
  -12.720000000000001          1.9831364036674815E-019
  -12.660000000000000          1.7156347532309686E-019
  -12.600000000000000          1.3390073923414000E-019
  -12.540000000000001          8.4456663606992298E-020
  -12.480000000000000          2.2582447434248980E-020
  -12.420000000000000         -5.2090026946607846E-020
  -12.360000000000001         -1.3958569879280638E-019
  -12.300000000000001         -2.3952393628799305E-019
  -12.240000000000000         -3.5105806229747620E-019
  -12.180000000000000         -4.7281946379188275E-019
  -12.120000000000001         -6.0286814921712561E-019
  -12.060000000000000         -7.3865296738065472E-019
  -12.000000000000000         -8.7698433751993934E-019
  -11.940000000000001         -1.0140215238745531E-018
  -11.880000000000001         -1.1452788290065331E-018
  -11.820000000000000         -1.2656520396716116E-018
  -11.760000000000000         -1.3694688498931592E-018
  -11.700000000000001         -1.4505645723545930E-018
  -11.640000000000001         -1.5023858346728207E-018
  -11.580000000000000         -1.5181231567056476E-018
  -11.520000000000000         -1.4908728119521906E-018
  -11.460000000000001         -1.4138290706562119E-018
  -11.400000000000000         -1.2805035228949882E-018
  -11.340000000000000         -1.0849716476570876E-018
  -11.280000000000001         -8.2214246149062689E-019
  -11.220000000000001         -4.8804654747583294E-019
  -11.160000000000000         -8.0137960190409943E-020
  -11.100000000000000          4.0239770817693160E-019
  -11.040000000000001          9.5833699563212395E-019
  -10.980000000000000          1.5841217984869296E-018
  -10.920000000000000          2.2735849305816359E-018
  -10.860000000000001          3.0177071766088515E-018
  -10.800000000000001          3.8044165651336472E-018
  -10.740000000000000          4.6184464172515645E-018
  -10.680000000000000          5.4412596638211220E-018
  -10.620000000000001          6.2510559478134666E-018
  -10.560000000000000          7.0228716124016186E-018
  -10.500000000000000          7.7287816665888162E-018
  -10.440000000000001          8.3382192679439150E-018
  -10.380000000000001          8.8184125579958998E-018
  -10.320000000000000          9.1349527299587151E-018
  -10.260000000000000          9.2524883460111875E-018
  -10.200000000000001          9.1355543842345813E-018
  -10.140000000000001          8.7495231174443349E-018
  -10.080000000000000          8.0616746720367785E-018
  -10.020000000000001          7.0423765298791656E-018
  -9.9600000000000009          5.6663471192733605E-018
  -9.9000000000000004          3.9139916890289760E-018
  -9.8399999999999999          1.7727760699102779E-018
  -9.7800000000000011         -7.6138454136718121E-019
  -9.7200000000000006         -3.6827645278479399E-018
  -9.6600000000000001         -6.9745325859899660E-018
  -9.6000000000000014         -1.0607556469379476E-017
  -9.5400000000000009         -1.4539374837035216E-017
  -9.4800000000000004         -1.8713355471466960E-017
  -9.4199999999999999         -2.3058116673057752E-017
  -9.3600000000000012         -2.7487248819732497E-017
  -9.3000000000000007         -3.1899371926461298E-017
  -9.2400000000000002         -3.6178611308190991E-017
  -9.1799999999999997         -4.0195481794607208E-017
  -9.1200000000000010         -4.3808262700919251E-017
  -9.0600000000000005         -4.6864870137591884E-017
  -9.0000000000000000         -4.9205233000844921E-017
  -8.9400000000000013         -5.0664214959353374E-017
  -8.8800000000000008         -5.1075037991642388E-017
  -8.8200000000000003         -5.0273222504979161E-017
  -8.7599999999999998         -4.8101002045693501E-017
  -8.7000000000000011         -4.4412155705805812E-017
  -8.6400000000000006         -3.9077186078504807E-017
  -8.5800000000000001         -3.1988805977956081E-017
  -8.5200000000000014         -2.3067566011784060E-017
  -8.4600000000000009         -1.2267586681402860E-017
  -8.4000000000000004          4.1782133933039660E-019
  -8.3399999999999999          1.4950737304166911E-017
  -8.2800000000000011          3.1243564056412523E-017
  -8.2200000000000006          4.9154505445998670E-017
  -8.1600000000000001          6.8483757397441495E-017
  -8.1000000000000014          8.8970619231452121E-017
  -8.0400000000000009          1.1029163897395435E-016
  -7.9800000000000004          1.3206003843953343E-016
  -7.9200000000000017          1.5382653400494928E-016
  -7.8599999999999994          1.7508168229168182E-016
  -7.8000000000000007          1.9526001889514431E-016
  -7.7400000000000020          2.1374594396059388E-016
  -7.6799999999999997          2.2988146500227821E-016
  -7.6200000000000010          2.4297596923257944E-016
  -7.5600000000000023          2.5231782038745285E-016
  -7.5000000000000000          2.5718798719324321E-016
  -7.4400000000000013          2.5687539487822511E-016
  -7.3799999999999990          2.5069403459450351E-016
  -7.3200000000000003          2.3800145481288018E-016
  -7.2600000000000016          2.1821872450916405E-016
  -7.1999999999999993          1.9085106306260353E-016
  -7.1400000000000006          1.5550938036403167E-016
  -7.0800000000000018          1.1193176547255042E-016
  -7.0199999999999996          6.0004927818955854E-017
  -6.9600000000000009         -2.1529667845457949E-019
  -6.9000000000000021         -6.8484442206719173E-017
  -6.8399999999999999         -1.4435216964364885E-016
  -6.7800000000000011         -2.2714697076192738E-016
  -6.7199999999999989         -3.1596427502606281E-016
  -6.6600000000000001         -4.0965802826192357E-016
  -6.6000000000000014         -5.0683633528017207E-016
  -6.5399999999999991         -6.0586199794088330E-016
  -6.4800000000000004         -7.0485830758225363E-016
  -6.4200000000000017         -8.0172038247652534E-016
  -6.3599999999999994         -8.9413274612346582E-016
  -6.3000000000000007         -9.7959312193045193E-016
  -6.2400000000000020         -1.0554427869218552E-015
  -6.1799999999999997         -1.1189036108250247E-015
  -6.1200000000000010         -1.1671216269967003E-015
  -6.0600000000000023         -1.1972170727140938E-015
  -6.0000000000000000         -1.2063399908455952E-015
  -5.9400000000000013         -1.1917318511058420E-015
  -5.8799999999999990         -1.1507918510649320E-015
  -5.8200000000000003         -1.0811471831994880E-015
  -5.7600000000000016         -9.8072605133001020E-016
  -5.6999999999999993         -8.4783341707136433E-016
  -5.6400000000000006         -6.8122649668903350E-016
  -5.5800000000000018         -4.8018989821697294E-016
  -5.5199999999999996         -2.4460762285710489E-016
  -5.4600000000000009          2.4967167003767498E-017
  -5.4000000000000021          3.2725049184582295E-016
  -5.3399999999999999          6.6017126921432176E-016
  -5.2800000000000011          1.0208258444832839E-015
  -5.2200000000000024          1.4054435067898638E-015
  -5.1600000000000001          1.8093634397716682E-015
  -5.1000000000000014          2.2270285287951062E-015
  -5.0399999999999991          2.6519933526403546E-015
  -4.9800000000000004          3.0769504924113572E-015
  -4.9200000000000017          3.4937755408531154E-015
  -4.8599999999999994          3.8935927714707749E-015
  -4.8000000000000007          4.2668587918550272E-015
  -4.7400000000000020          4.6034703976716003E-015
  -4.6799999999999997          4.8928900931499347E-015
  -4.6200000000000010          5.1242945029741565E-015
  -4.5600000000000023          5.2867417717970828E-015
  -4.5000000000000000          5.3693575617724369E-015
  -4.4400000000000013          5.3615391626565847E-015
  -4.3799999999999990          5.2531748987038755E-015
  -4.3200000000000003          5.0348756706943201E-015
  -4.2600000000000016          4.6982171343390834E-015
  -4.1999999999999993          4.2359884283936748E-015
  -4.1400000000000006          3.6424448207182602E-015
  -4.0800000000000018          2.9135590862722710E-015
  -4.0199999999999996          2.0472668238431122E-015
  -3.9600000000000009          1.0437034334814622E-015
  -3.9000000000000021         -9.4573104338338784E-017
  -3.8399999999999999         -1.3623810108852799E-015
  -3.7800000000000011         -2.7517392328796481E-015
  -3.7200000000000024         -4.2517168486432059E-015
  -3.6600000000000001         -5.8483243393189783E-015
  -3.6000000000000014         -7.5244386254659887E-015
  -3.5399999999999991         -9.2597784622006760E-015
  -3.4800000000000004         -1.1030926724986652E-014
  -3.4200000000000017         -1.2811405756529363E-014
  -3.3599999999999994         -1.4571809130804650E-014
  -3.3000000000000007         -1.6279997868827213E-014
  -3.2400000000000020         -1.7901352093896628E-014
  -3.1799999999999997         -1.9399093907131069E-014
  -3.1200000000000010         -2.0734668520849139E-014
  -3.0600000000000023         -2.1868192510162576E-014
  -3.0000000000000000         -2.2758966002939566E-014
  -2.9400000000000013         -2.3366046559268907E-014
  -2.8800000000000026         -2.3648872325092365E-014
  -2.8200000000000003         -2.3567951213335353E-014
  -2.7600000000000016         -2.3085587606121648E-014
  -2.6999999999999993         -2.2166651334299106E-014
  -2.6400000000000006         -2.0779388339570393E-014
  -2.5800000000000018         -1.8896232342008503E-014
  -2.5199999999999996         -1.6494658210367881E-014
  -2.4600000000000009         -1.3558010791718522E-014
  -2.4000000000000021         -1.0076348564730251E-014
  -2.3399999999999999         -6.0472453988111391E-015
  -2.2800000000000011         -1.4765469204274333E-015
  -2.2200000000000024          3.6208865051189935E-015
  -2.1600000000000001          9.2205502411988393E-015
  -2.1000000000000014          1.5287711817726063E-014
  -2.0399999999999991          2.1776952678473317E-014
  -1.9800000000000004          2.8631805817386144E-014
  -1.9200000000000017          3.5784524999079758E-014
  -1.8599999999999994          4.3156006582457105E-014
  -1.8000000000000007          5.0655852965321363E-014
  -1.7400000000000020          5.8182626429262933E-014
  -1.6799999999999997          6.5624260054286711E-014
  -1.6200000000000010          7.2858701273033991E-014
  -1.5600000000000023          7.9754703164746122E-014
  -1.5000000000000000          8.6172863547764662E-014
  -1.4400000000000013          9.1966874295259043E-014
  -1.3800000000000026          9.6984953854507466E-014
  -1.3200000000000003          1.0107153417808791E-013
  -1.2600000000000016          1.0406912140143752E-013
  -1.1999999999999993          1.0582038016570271E-013
  -1.1400000000000006          1.0617040602631584E-013
  -1.0800000000000018          1.0496914888997421E-013
  -1.0199999999999996          1.0207405793119741E-013
 -0.96000000000000085          9.7352787578440620E-014
 -0.90000000000000213          9.0686054078378146E-014
 -0.83999999999999986          8.1970567892426271E-014
 -0.78000000000000114          7.1122065001628213E-014
 -0.72000000000000242          5.8078285099967284E-014
 -0.66000000000000014          4.2801872075213920E-014
 -0.60000000000000142          2.5283411356471705E-014
 -0.53999999999999915          5.5441189037951318E-015
 -0.48000000000000043         -1.6361508989937141E-014
 -0.42000000000000171         -4.0343259065259176E-014
 -0.35999999999999943         -6.6273076779586078E-014
 -0.30000000000000071         -9.3983293153677805E-014
 -0.24000000000000199         -1.2326505741020832E-013
 -0.17999999999999972         -1.5386742662892596E-013
 -0.12000000000000099         -1.8549677627906750E-013
  -6.0000000000002274E-002    -2.1781673478893403E-013
   0.0000000000000000         -2.5044887231613729E-013
   5.9999999999998721E-002    -2.8297375486950695E-013
  0.11999999999999744         -3.1493286389143117E-013
  0.17999999999999972         -3.4583108961425908E-013
  0.23999999999999844         -3.7514001724775960E-013
  0.30000000000000071         -4.0230188032337787E-013
  0.35999999999999943         -4.2673435125483600E-013
  0.41999999999999815         -4.4783603703259890E-013
  0.48000000000000043         -4.6499270098793675E-013
  0.53999999999999915         -4.7758420359765271E-013
  0.59999999999999787         -4.8499230914162123E-013
  0.66000000000000014         -4.8660885903179177E-013
  0.71999999999999886         -4.8184478066983148E-013
  0.77999999999999758         -4.7013951247743507E-013
  0.83999999999999986         -4.5097100805543647E-013
  0.89999999999999858         -4.2386588340529167E-013
  0.96000000000000085         -3.8841010685893586E-013
   1.0199999999999996         -3.4425964090579231E-013
   1.0799999999999983         -2.9115108077770223E-013
   1.1400000000000006         -2.2891239664309635E-013
   1.1999999999999993         -1.5747298564393155E-013
   1.2599999999999980         -7.6873909224127779E-014
   1.3200000000000003          1.2723123031241878E-014
   1.3799999999999990          1.1102702064773789E-013
   1.4399999999999977          2.1760955746490389E-013
   1.5000000000000000          3.3189944667365535E-013
   1.5599999999999987          4.5317640312562936E-013
   1.6199999999999974          5.8056754261367741E-013
   1.6799999999999997          7.1304540189183299E-013
   1.7399999999999984          8.4942715382279785E-013
   1.8000000000000007          9.8837621212756951E-013
   1.8599999999999994          1.1284056100149139E-012
   1.9199999999999982          1.2678836698693944E-012
   1.9800000000000004          1.4050417380916301E-012
   2.0399999999999991          1.5379842530506135E-012
   2.0999999999999979          1.6647011959572748E-012
   2.1600000000000001          1.7830833743195955E-012
   2.2199999999999989          1.8909389252862576E-012
   2.2799999999999976          1.9860131627242214E-012
   2.3399999999999999          2.0660104828199513E-012
   2.3999999999999986          2.1286182257888501E-012
   2.4599999999999973          2.1715327546783030E-012
   2.5199999999999996          2.1924870880347230E-012
   2.5799999999999983          2.1892806003275806E-012
   2.6400000000000006          2.1598099459195922E-012
   2.6999999999999993          2.1021015717557429E-012
   2.7599999999999980          2.0143441263895956E-012
   2.8200000000000003          1.8949223598056170E-012
   2.8799999999999990          1.7424516697273356E-012
   2.9399999999999977          1.5558100446100411E-012
   3.0000000000000000          1.3341726316609614E-012
   3.0599999999999987          1.0770435860002974E-012
   3.1199999999999974          7.8428605695761104E-013
   3.1799999999999997          4.5615200710249795E-013
   3.2399999999999984          9.3308679592164434E-014
   3.3000000000000007         -3.0313847802610869E-013
   3.3599999999999994         -7.3162412893948384E-013
   3.4199999999999982         -1.1901055327217780E-012
   3.4800000000000004         -1.6760511376289727E-012
   3.5399999999999991         -2.1864293406417471E-012
   3.5999999999999979         -2.7177068347670990E-012
   3.6600000000000001         -3.2658475896969546E-012
   3.7199999999999989         -3.8263201940589400E-012
   3.7799999999999976         -4.3941107604628114E-012
   3.8399999999999999         -4.9637386998259549E-012
   3.8999999999999986         -5.5292821011522731E-012
   3.9599999999999973         -6.0844083842438477E-012
   4.0199999999999996         -6.6224077289652391E-012
   4.0799999999999983         -7.1362378799317957E-012
   4.1400000000000006         -7.6185718325788668E-012
   4.1999999999999993         -8.0618509894264651E-012
   4.2599999999999980         -8.4583489875753183E-012
   4.3200000000000003         -8.8002305717910024E-012
   4.3799999999999990         -9.0796298560502774E-012
   4.4399999999999977         -9.2887205680359438E-012
   4.5000000000000000         -9.4197978299035350E-012
   4.5599999999999987         -9.4653622924116540E-012
   4.6199999999999974         -9.4182043951188837E-012
   4.6799999999999997         -9.2714988359532211E-012
   4.7399999999999984         -9.0188895362001510E-012
   4.7999999999999972         -8.6545868065468086E-012
   4.8599999999999994         -8.1734589740251822E-012
   4.9199999999999982         -7.5711246208608124E-012
   4.9800000000000004         -6.8440417006234189E-012
   5.0399999999999991         -5.9896013804362256E-012
   5.0999999999999979         -5.0062086005849245E-012
   5.1600000000000001         -3.8933683349241332E-012
   5.2199999999999989         -2.6517588657480197E-012
   5.2799999999999976         -1.2833064357375496E-012
   5.3399999999999999          2.0875156393502910E-013
   5.3999999999999986          1.8198127006970483E-012
   5.4599999999999973          3.5438547293074925E-012
   5.5199999999999996          5.3734011100108180E-012
   5.5799999999999983          7.2994918605544376E-012
   5.6400000000000006          9.3116675035211376E-012
   5.6999999999999993          1.1397958560308966E-011
   5.7599999999999980          1.3544894845683947E-011
   5.8200000000000003          1.5737523215193502E-011
   5.8799999999999990          1.7959441102401986E-011
   5.9399999999999977          2.0192845738780868E-011
   6.0000000000000000          2.2418592888176749E-011
   6.0599999999999987          2.4616272933660492E-011
   6.1199999999999974          2.6764301277090246E-011
   6.1799999999999997          2.8840026869596114E-011
   6.2399999999999984          3.0819852075005799E-011
   6.2999999999999972          3.2679363802471873E-011
   6.3599999999999994          3.4393492853062457E-011
   6.4199999999999982          3.5936670749834079E-011
   6.4800000000000004          3.7283015500964646E-011
   6.5399999999999991          3.8406516071872907E-011
   6.5999999999999979          3.9281238930258913E-011
   6.6600000000000001          3.9881551011922897E-011
   6.7199999999999989          4.0182345473139246E-011
   6.7799999999999976          4.0159265068126035E-011
   6.8399999999999999          3.9788966218062448E-011
   6.8999999999999986          3.9049353077124031E-011
   6.9599999999999973          3.7919851495357408E-011
   7.0199999999999996          3.6381665406952046E-011
   7.0799999999999983          3.4418035224509425E-011
   7.1400000000000006          3.2014501544042261E-011
   7.1999999999999993          2.9159183019422756E-011
   7.2599999999999980          2.5843015971903170E-011
   7.3200000000000003          2.2060019756017328E-011
   7.3799999999999990          1.7807537756073945E-011
   7.4399999999999977          1.3086468858530212E-011
   7.5000000000000000          7.9015052483215177E-012
   7.5599999999999987          2.2613105562791031E-012
   7.6199999999999974         -3.8212617674013485E-012
   7.6799999999999997         -1.0329014324684748E-011
   7.7399999999999984         -1.7240255741182701E-011
   7.7999999999999972         -2.4528678295997397E-011
   7.8599999999999994         -3.2163269430646010E-011
   7.9199999999999982         -4.0108232785901817E-011
   7.9800000000000004         -4.8322963212611220E-011
   8.0399999999999991         -5.6762045295353204E-011
   8.1000000000000014         -6.5375302891633066E-011
   8.1599999999999966         -7.4107848905559208E-011
   8.2199999999999989         -8.2900210207411271E-011
   8.2800000000000011         -9.1688482311518866E-011
   8.3399999999999963         -1.0040453948333271E-010
   8.3999999999999986         -1.0897623304233433E-010
   8.4600000000000009         -1.1732771141994936E-010
   8.5199999999999960         -1.2537974914165671E-010
   8.5799999999999983         -1.3305007129964935E-010
   8.6400000000000006         -1.4025384737194172E-010