  -24.000000000000000          0.0000000000000000     
  -23.940000000000001          0.0000000000000000     
  -23.879999999999999          0.0000000000000000     
  -23.820000000000000          0.0000000000000000     
  -23.760000000000002          0.0000000000000000     
  -23.699999999999999          0.0000000000000000     
  -23.640000000000001         -4.2169696986831596E-029
  -23.579999999999998         -5.3748639081827580E-028
  -23.520000000000000         -3.6753616687734799E-027
  -23.460000000000001         -1.7885053898478418E-026
  -23.399999999999999         -6.9363000185361087E-026
  -23.340000000000000         -2.2777624709986110E-025
  -23.280000000000001         -6.5738090103538487E-025
  -23.219999999999999         -1.7096305731198893E-024
  -23.160000000000000         -4.0781552667981551E-024
  -23.100000000000001         -9.0405837376964200E-024
  -23.039999999999999         -1.8812393937734028E-023
  -22.980000000000000         -3.7033843541165366E-023
  -22.920000000000002         -6.9399684224804354E-023
  -22.859999999999999         -1.2442119184717013E-022
  -22.800000000000001         -2.1427860211911446E-022
  -22.739999999999998         -3.5567990054829059E-022
  -22.680000000000000         -5.7058849398736758E-022
  -22.620000000000001         -8.8662194996259341E-022
  -22.559999999999999         -1.3368578656978909E-021
  -22.500000000000000         -1.9587277744175313E-021
  -22.440000000000001         -2.7916273577506230E-021
  -22.379999999999999         -3.8728618377311480E-021
  -22.320000000000000         -5.2315529574761891E-021
  -22.260000000000002         -6.8802230051646164E-021
  -22.199999999999999         -8.8039037466644315E-021
  -22.140000000000001         -1.0946828379026038E-020
  -22.079999999999998         -1.3197106487569042E-020
  -22.020000000000000         -1.5370123486266293E-020
  -21.960000000000001         -1.7191906062152710E-020
  -21.899999999999999         -1.8284219597342752E-020
  -21.840000000000000         -1.8153676272890566E-020
  -21.780000000000001         -1.6187743625279324E-020
  -21.719999999999999         -1.1660950040467794E-020
  -21.660000000000000         -3.7549450685896771E-021
  -21.600000000000001          8.4038490468336920E-021
  -21.539999999999999          2.5685282420824486E-020
  -21.480000000000000          4.8872290943855611E-020
  -21.420000000000002          7.8551234095622250E-020
  -21.359999999999999          1.1497532145830396E-019
  -21.300000000000001          1.5790237283555730E-019
  -21.240000000000002          2.0641090729809910E-019
  -21.180000000000000          2.5870179109962132E-019
  -21.120000000000001          3.1189563217372415E-019
  -21.059999999999999          3.6184053964149731E-019
  -21.000000000000000          4.0294816871828483E-019
  -20.940000000000001          4.2808015885591054E-019
  -20.879999999999999          4.2850992200230808E-019
  -20.820000000000000          3.9398722048075487E-019
  -20.760000000000002          3.1293449987938603E-019
  -20.699999999999999          1.7280305832188787E-019
  -20.640000000000001         -3.9385231691008309E-020
  -20.579999999999998         -3.3628944975547705E-019
  -20.520000000000000         -7.2928221685112639E-019
  -20.460000000000001         -1.2272594259025646E-018
  -20.399999999999999         -1.8352383061731379E-018
  -20.340000000000000         -2.5527728768377993E-018
  -20.280000000000001         -3.3722321675142822E-018
  -20.219999999999999         -4.2770092644981519E-018
  -20.160000000000000         -5.2397534547126194E-018
  -20.100000000000001         -6.2207395887754114E-018
  -20.039999999999999         -7.1665090285226602E-018
  -19.980000000000000         -8.0089421885490008E-018
  -19.920000000000002         -8.6649309606582058E-018
  -19.859999999999999         -9.0368366195768235E-018
  -19.800000000000001         -9.0139127073458184E-018
  -19.740000000000002         -8.4748720840602747E-018
  -19.680000000000000         -7.2917556788017669E-018
  -19.620000000000001         -5.3352166914241348E-018
  -19.560000000000002         -2.4813118167799218E-018
  -19.500000000000000          1.3802050358495793E-018
  -19.440000000000001          6.3361388022439902E-018
  -19.379999999999999          1.2438810313984755E-017
  -19.320000000000000          1.9694000927453369E-017
  -19.259999999999998          2.8048218814727314E-017
  -19.199999999999999          3.7375827187470149E-017
  -19.140000000000001          4.7466633274546858E-017
  -19.079999999999998          5.8014659622787180E-017
  -19.020000000000000          6.8608981367529766E-017
  -18.960000000000001          7.8727524325852796E-017
  -18.899999999999999          8.7734889495898461E-017
  -18.840000000000000          9.4885119594528468E-017
  -18.780000000000001          9.9330546899123420E-017
  -18.719999999999999          1.0013758131694545E-016
  -18.660000000000000          9.6310275853283434E-017
  -18.600000000000001          8.6822332296508237E-017
  -18.539999999999999          7.0657927016718592E-017
  -18.480000000000000          4.6861321740419745E-017
  -18.420000000000002          1.4595028852105010E-017
  -18.359999999999999         -2.6794336792172565E-017
  -18.300000000000001         -7.7703837353691284E-017
  -18.240000000000002         -1.3819739761329619E-016
  -18.180000000000000         -2.0792697549543681E-016
  -18.120000000000001         -2.8605472691912076E-016
  -18.060000000000002         -3.7117959942842612E-016
  -18.000000000000000         -4.6127274609175766E-016
  -17.940000000000001         -5.5362600320311992E-016
  -17.879999999999999         -6.4481871593585935E-016
  -17.820000000000000         -7.3070759945976412E-016
  -17.759999999999998         -8.0644492432686651E-016
  -17.699999999999999         -8.6653011959896183E-016
  -17.640000000000001         -9.0489866880949886E-016
  -17.579999999999998         -9.1505256352456592E-016
  -17.520000000000000         -8.9023516820559026E-016
  -17.460000000000001         -8.2365122123976814E-016
  -17.399999999999999         -7.0873302985355707E-016
  -17.340000000000000         -5.3944997786220876E-016
  -17.280000000000001         -3.1065777701222493E-016
  -17.219999999999999         -1.8481475188864748E-017
  -17.160000000000000          3.3927691241801347E-016
  -17.100000000000001          7.6271760831530425E-016
  -17.039999999999999          1.2494218082007479E-015
  -16.980000000000000          1.7940475800653651E-015
  -16.920000000000002          2.3879600945121765E-015
  -16.859999999999999          3.0189168773727922E-015
  -16.800000000000001          3.6708312404460499E-015
  -16.740000000000002          4.3236341076401152E-015
  -16.680000000000000          4.9532593664952926E-015
  -16.620000000000001          5.5317730315766677E-015
  -16.560000000000002          6.0276690607505686E-015
  -16.500000000000000          6.4063481161097301E-015
  -16.440000000000001          6.6307947907752323E-015
  -16.379999999999999          6.6624642983052292E-015
  -16.320000000000000          6.4623790411140933E-015
  -16.260000000000002          5.9924355281688164E-015
  -16.199999999999999          5.2169099308505780E-015
  -16.140000000000001          4.1041431275323609E-015
  -16.079999999999998          2.6283731448250926E-015
  -16.020000000000000          7.7168292824155352E-016
  -15.960000000000001         -1.4739946741945472E-015
  -15.900000000000000         -4.1048619981643308E-015
  -15.840000000000000         -7.1033146505349548E-015
  -15.780000000000001         -1.0436131163507722E-014
  -15.720000000000001         -1.4052895342231205E-014
  -15.660000000000000         -1.7884729855071531E-014
  -15.600000000000000         -2.1843435060620993E-014
  -15.540000000000001         -2.5821127535646002E-014
  -15.480000000000000         -2.9690472973537454E-014
  -15.420000000000000         -3.3305592051480372E-014
  -15.359999999999999         -3.6503708240948782E-014
  -15.300000000000001         -3.9107626172703792E-014
  -15.240000000000000         -4.0929053641994148E-014
  -15.180000000000000         -4.1772814796310623E-014
  -15.120000000000001         -4.1441930806515698E-014
  -15.060000000000000         -3.9743582995575072E-014
  -15.000000000000000         -3.6495847240149662E-014
  -14.940000000000000         -3.1535127003978349E-014
  -14.880000000000001         -2.4724177989997818E-014
  -14.820000000000000         -1.5960526869350809E-014
  -14.760000000000000         -5.1850945577680806E-015
  -14.700000000000001          7.6092044349141363E-015
  -14.640000000000001          2.2369153730218451E-014
  -14.580000000000000          3.8973541174431816E-014
  -14.520000000000000          5.7226339463365898E-014
  -14.460000000000001          7.6851182673666296E-014
  -14.400000000000000          9.7487383691275234E-014
  -14.340000000000000          1.1868789997595796E-013
  -14.280000000000001          1.3991959345624394E-013
  -14.220000000000001          1.6056601251744881E-013
  -14.160000000000000          1.7993301670381272E-013
  -14.100000000000000          1.9725753384103671E-013
  -14.040000000000001          2.1171948715236317E-013
  -13.980000000000000          2.2245703593492104E-013
  -13.920000000000000          2.2858524775440479E-013
  -13.860000000000001          2.2921793566182603E-013
  -13.800000000000001          2.2349254632716344E-013
  -13.740000000000000          2.1059785358333071E-013
  -13.680000000000000          1.8980401125088599E-013
  -13.620000000000001          1.6049429775289196E-013
  -13.560000000000000          1.2219817376850551E-013
  -13.500000000000000          7.4624542188703649E-014
  -13.440000000000001          1.7694592711216196E-014
  -13.380000000000001         -4.8426822400777829E-014
  -13.320000000000000         -1.2330234737961128E-013
  -13.260000000000000         -2.0619694005697781E-013
  -13.200000000000001         -2.9605738510257220E-013
  -13.140000000000001         -3.9149782551167437E-013
  -13.080000000000000         -4.9079224371381090E-013
  -13.020000000000000         -5.9187502377541429E-013
  -12.960000000000001         -6.9235083986895324E-013
  -12.900000000000000         -7.8951420115402211E-013
  -12.840000000000000         -8.8037977247999931E-013
  -12.780000000000001         -9.6172361032934391E-013
  -12.720000000000001         -1.0301361186567363E-012
  -12.660000000000000         -1.0820859930931923E-012
  -12.600000000000000         -1.1139950377637267E-012
  -12.540000000000001         -1.1223237986538263E-012
  -12.480000000000000         -1.1036662130029756E-012
  -12.420000000000000         -1.0548521473124414E-012
  -12.360000000000001         -9.7305662579505039E-013
  -12.300000000000001         -8.5591289384260625E-013
  -12.240000000000000         -7.0162761807244068E-013
  -12.180000000000000         -5.0909534574788237E-013
  -12.120000000000001         -2.7800911952759086E-013
  -12.060000000000000         -8.9638930150679612E-015
  -12.000000000000000          2.9644967924066589E-013
  -11.940000000000001          6.3556575881066568E-013
  -11.880000000000001          1.0045806567684299E-012
  -11.820000000000000          1.3985108087547115E-012
  -11.760000000000000          1.8111742150388680E-012
  -11.700000000000001          2.2351995602709665E-012
  -11.640000000000001          2.6620628829293789E-012
  -11.580000000000000          3.0821582526231324E-012
  -11.520000000000000          3.4848992077362295E-012
  -11.460000000000001          3.8588566880715855E-012
  -11.400000000000000          4.1919295188617193E-012
  -11.340000000000000          4.4715501750513538E-012
  -11.280000000000001          4.6849223414208558E-012
  -11.220000000000001          4.8192897915533353E-012
  -11.160000000000000          4.8622316854887258E-012
  -11.100000000000000          4.8019812519823549E-012
  -11.040000000000001          4.6277618843848422E-012
  -10.980000000000000          4.3301363823076163E-012
  -10.920000000000000          3.9013599997684515E-012
  -10.860000000000001          3.3357325553511782E-012
  -10.800000000000001          2.6299387464425544E-012
  -10.740000000000000          1.7833701747231189E-012
  -10.680000000000000          7.9841790927172263E-013
  -10.620000000000001         -3.1927023924909011E-013
  -10.560000000000000         -1.5605819216001703E-012
  -10.500000000000000         -2.9127842700639028E-012
  -10.440000000000001         -4.3594376977577138E-012
  -10.380000000000001         -5.8803741154744670E-012
  -10.320000000000000         -7.4517587939995235E-012
  -10.260000000000000         -9.0462379916962926E-012
  -10.200000000000001         -1.0633168027363117E-011
  -10.140000000000001         -1.2178943805441867E-011
  -10.080000000000000         -1.3647416043010762E-011
  -10.020000000000001         -1.5000397762786967E-011
  -9.9600000000000009         -1.6198263856786029E-011
  -9.9000000000000004         -1.7200628746216659E-011
  -9.8399999999999999         -1.7967105403825197E-011
  -9.7800000000000011         -1.8458125473573044E-011
  -9.7200000000000006         -1.8635819941977045E-011
  -9.6600000000000001         -1.8464933500248262E-011
  -9.6000000000000014         -1.7913769486869413E-011
  -9.5400000000000009         -1.6955140554571055E-011
  -9.4800000000000004         -1.5567310704333250E-011
  -9.4199999999999999         -1.3734902829937956E-011
  -9.3600000000000012         -1.1449756234656085E-011
  -9.3000000000000007         -8.7117106676823898E-012
  -9.2400000000000002         -5.5292976012420611E-012
  -9.1799999999999997         -1.9203150846964172E-012
  -9.1200000000000010          2.0877344628021925E-012
  -9.0600000000000005          6.4573547316304472E-012
  -9.0000000000000000          1.1140942923467070E-011
  -8.9400000000000013          1.6080863767827090E-011
  -8.8800000000000008          2.1209701428395194E-011
  -8.8200000000000003          2.6450746929094286E-011
  -8.7599999999999998          3.1718674281125149E-011
  -8.7000000000000011          3.6920429080585405E-011
  -8.6400000000000006          4.1956341187478700E-011
  -8.5800000000000001          4.6721418079654513E-011
  -8.5200000000000014          5.1106855414360591E-011
  -8.4600000000000009          5.5001692275518415E-011
  -8.4000000000000004          5.8294640603163316E-011
  -8.3399999999999999          6.0876045686500867E-011
  -8.2800000000000011          6.2639934121212556E-011
  -8.2200000000000006          6.3486148831898041E-011
  -8.1600000000000001          6.3322519314792146E-011
  -8.1000000000000014          6.2067009601456553E-011
  -8.0400000000000009          5.9649856447910718E-011
  -7.9800000000000004          5.6015611860170873E-011
  -7.9200000000000017          5.1125056369011227E-011
  -7.8599999999999994          4.4956972020527459E-011
  -7.8000000000000007          3.7509689617040073E-011
  -7.7400000000000020          2.8802416107670493E-011
  -7.6799999999999997          1.8876272843090605E-011
  -7.6200000000000010          7.7950427189932586E-012
  -7.5600000000000023         -4.3544417657065264E-012
  -7.5000000000000000         -1.7462245961353955E-011
  -7.4400000000000013         -3.1395666387483900E-011
  -7.3799999999999990         -4.5999938802345018E-011
  -7.3200000000000003         -6.1099368819510023E-011
  -7.2600000000000016         -7.6498817143108181E-011
  -7.1999999999999993         -9.1985581616026824E-011
  -7.1400000000000006         -1.0733165478959866E-010
  -7.0800000000000018         -1.2229631637303212E-010
  -7.0199999999999996         -1.3662904858666489E-010
  -6.9600000000000009         -1.5007272190153491E-010
  -6.9000000000000021         -1.6236704849240018E-010
  -6.8399999999999999         -1.7325218972731764E-010
  -6.7800000000000011         -1.8247253012241644E-010
  -6.7199999999999989         -1.8978056065833418E-010
  -6.6600000000000001         -1.9494073967681204E-010
  -6.6000000000000014         -1.9773339915013613E-010
  -6.5399999999999991         -1.9795851575563022E-010
  -6.4800000000000004         -1.9543935271470859E-010
  -6.4200000000000017         -1.9002590095240387E-010
  -6.3599999999999994         -1.8159807010181198E-010
  -6.3000000000000007         -1.7006856652582822E-010
  -6.2400000000000020         -1.5538543770250908E-010
  -6.1799999999999997         -1.3753417322942168E-010
  -6.1200000000000010         -1.1653945330530322E-010
  -6.0600000000000023         -9.2466365151088449E-011
  -6.0000000000000000         -6.5421175590764695E-011
  -5.9400000000000013         -3.5551635302081807E-011
  -5.8799999999999990         -3.0467367084275803E-012
  -5.8200000000000003          3.1864008316005322E-011
  -5.7600000000000016          6.8911706894578191E-011
  -5.6999999999999993          1.0778983559205947E-010
  -5.6400000000000006          1.4815626309806648E-010
  -5.5800000000000018          1.8963582952664549E-010
  -5.5199999999999996          2.3182326507208178E-010
  -5.4600000000000009          2.7428634780143605E-010
  -5.4000000000000021          3.1656944118027218E-010
  -5.3399999999999999          3.5819731234834040E-010
  -5.2800000000000011          3.9867909466374013E-010
  -5.2200000000000024          4.3751237264322140E-010
  -5.1600000000000001          4.7418732427508297E-010
  -5.1000000000000014          5.0819117849169629E-010
  -5.0399999999999991          5.3901231176190001E-010
  -4.9800000000000004          5.6614467456752776E-010
  -4.9200000000000017          5.8909181639799138E-010
  -4.8599999999999994          6.0737104305326025E-010
  -4.8000000000000007          6.2051746015377546E-010
  -4.7400000000000020          6.2808779054933316E-010
  -4.6799999999999997          6.2966408278511521E-010
  -4.6200000000000010          6.2485723915138586E-010
  -4.5600000000000023          6.1331055994218632E-010
  -4.5000000000000000          5.9470275331927869E-010
  -4.4400000000000013          5.6875133163774333E-010
  -4.3799999999999990          5.3521551711102863E-010
  -4.3200000000000003          4.9389912210454231E-010
  -4.2600000000000016          4.4465343061042754E-010
  -4.1999999999999993          3.8737991727700013E-010
  -4.1400000000000006          3.2203304014408263E-010
  -4.0800000000000018          2.4862288726780958E-010
  -4.0199999999999996          1.6721773490887443E-010
  -3.9600000000000009          7.7947022985067574E-011
  -3.9000000000000021         -1.8996316395837038E-011
  -3.8399999999999999         -1.2335316568121434E-010
  -3.7800000000000011         -2.3479537132585064E-010
  -3.7200000000000024         -3.5292332123059144E-010
  -3.6600000000000001         -4.7726346426186527E-010
  -3.6000000000000014         -6.0726598339173560E-010
  -3.5399999999999991         -7.4230240953576504E-010
  -3.4800000000000004         -8.8166385287199355E-010
  -3.4200000000000017         -1.0245589977189749E-009
  -3.3599999999999994         -1.1701130536446791E-009
  -3.3000000000000007         -1.3173668984767941E-009
  -3.2400000000000020         -1.4652765350625192E-009
  -3.1799999999999997         -1.6127135603005464E-009
  -3.1200000000000010         -1.7584661204662229E-009
  -3.0600000000000023         -1.9012408972783680E-009
  -3.0000000000000000         -2.0396661398282657E-009
  -2.9400000000000013         -2.1722950272438942E-009
  -2.8800000000000026         -2.2976107828071876E-009
  -2.8200000000000003         -2.4140330531029629E-009
  -2.7600000000000016         -2.5199253256730865E-009
  -2.6999999999999993         -2.6136028421952224E-009
  -2.6400000000000006         -2.6933439961656909E-009
  -2.5800000000000018         -2.7574009320884071E-009
  -2.5199999999999996         -2.8040120139645089E-009
  -2.4600000000000009         -2.8314170346730100E-009
  -2.4000000000000021         -2.8378719481147975E-009
  -2.3399999999999999         -2.8216661312906641E-009
  -2.2800000000000011         -2.7811401968311267E-009
  -2.2200000000000024         -2.7147053270799971E-009
  -2.1600000000000001         -2.6208632584515469E-009
  -2.1000000000000014         -2.4982270892692583E-009
  -2.0399999999999991         -2.3455433601476127E-009
  -1.9800000000000004         -2.1617145050435114E-009
  -1.9200000000000017         -1.9458202038849727E-009
  -1.8599999999999994         -1.6971415164124570E-009
  -1.8000000000000007         -1.4151827764837928E-009
  -1.7400000000000020         -1.0996937278609778E-009
  -1.6799999999999997         -7.5069130735742767E-010
  -1.6200000000000010         -3.6848147433801388E-010
  -1.5600000000000023          4.6322756765735455E-011
  -1.5000000000000000          4.9278105731557691E-010
  -1.4400000000000013          9.6960928164375431E-010
  -1.3800000000000026          1.4751635145514526E-009
  -1.3200000000000003          2.0074284805791491E-009
  -1.2600000000000016          2.5640026314483529E-009
  -1.1999999999999993          3.1420929126321406E-009
  -1.1400000000000006          3.7385058234336372E-009
  -1.0800000000000018          4.3496448388711941E-009
  -1.0199999999999996          4.9715087833582316E-009
 -0.96000000000000085          5.5996931257018238E-009
 -0.90000000000000213          6.2293967885985567E-009
 -0.83999999999999986          6.8554292148904806E-009
 -0.78000000000000114          7.4722201940949459E-009
 -0.72000000000000242          8.0738373682753168E-009
 -0.66000000000000014          8.6540018369317679E-009
 -0.60000000000000142          9.2061091693219224E-009
 -0.53999999999999915          9.7232545076463241E-009
 -0.48000000000000043          1.0198261429119259E-008
 -0.42000000000000171          1.0623710648496223E-008
 -0.35999999999999943          1.0991976113392520E-008
 -0.30000000000000071          1.1295260596678473E-008
 -0.24000000000000199          1.1525636849219877E-008
 -0.17999999999999972          1.1675092791317567E-008
 -0.12000000000000099          1.1735574970810796E-008
  -6.0000000000002274E-002     1.1699041509463544E-008
   0.0000000000000000          1.1557511263177821E-008
   5.9999999999998721E-002     1.1303120720157117E-008
  0.11999999999999744          1.0928182377029600E-008
  0.17999999999999972          1.0425242133911408E-008
  0.23999999999999844          9.7871474647295076E-009
  0.30000000000000071          9.0071059210906206E-009
  0.35999999999999943          8.0787581138290600E-009
  0.41999999999999815          6.9962444472641295E-009
  0.48000000000000043          5.7542766202984939E-009
  0.53999999999999915          4.3482136118061559E-009
  0.59999999999999787          2.7741329301944340E-009
  0.66000000000000014          1.0289099377855644E-009
  0.71999999999999886         -8.8970304293324546E-010
  0.77999999999999758         -2.9830002249318484E-009
  0.83999999999999986         -5.2512432604013975E-009
  0.89999999999999858         -7.6935758486721755E-009
  0.96000000000000085         -1.0307943268985399E-008
   1.0199999999999996         -1.3091012237885092E-008
   1.0799999999999983         -1.6038088500206939E-008
   1.1400000000000006         -1.9143033630213926E-008
   1.1999999999999993         -2.2398185110277690E-008
   1.2599999999999980         -2.5794271163563144E-008
   1.3200000000000003         -2.9320336851593374E-008
   1.3799999999999990         -3.2963660602362320E-008
   1.4399999999999977         -3.6709669327843579E-008
   1.5000000000000000         -4.0541876116330380E-008
   1.5599999999999987         -4.4441791443605215E-008
   1.6199999999999974         -4.8388854702300577E-008
   1.6799999999999997         -5.2360364604080840E-008
   1.7399999999999984         -5.6331394687991980E-008
   1.8000000000000007         -6.0274738363005053E-008
   1.8599999999999994         -6.4160840436186118E-008
   1.9199999999999982         -6.7957714658241109E-008
   1.9800000000000004         -7.1630887930226341E-008
   2.0399999999999991         -7.5143339780069433E-008
   2.0999999999999979         -7.8455440713771852E-008
   2.1600000000000001         -8.1524859507163282E-008
   2.2199999999999989         -8.4306527766301198E-008
   2.2799999999999976         -8.6752559887707613E-008
   2.3399999999999999         -8.8812178053463408E-008
   2.3999999999999986         -9.0431655545639372E-008
   2.4599999999999973         -9.1554238289010345E-008
   2.5199999999999996         -9.2120037259566929E-008
   2.5799999999999983         -9.2065986844905360E-008
   2.6400000000000006         -9.1325740835272705E-008
   2.6999999999999993         -8.9829570391077103E-008
   2.7599999999999980         -8.7504195269226041E-008
   2.8200000000000003         -8.4272828795017052E-008
   2.8799999999999990         -8.0054874755278531E-008
   2.9399999999999977         -7.4765878658750563E-008
   3.0000000000000000         -6.8317367809859394E-008
   3.0599999999999987         -6.0616679795814737E-008
   3.1199999999999974         -5.1566743663343095E-008
   3.1799999999999997         -4.1065954787259775E-008
   3.2399999999999984         -2.9007915644450499E-008
   3.3000000000000007         -1.5281178564451262E-008
   3.3599999999999994          2.3093419131690002E-010
   3.4199999999999982          1.7650810720416208E-008
   3.4800000000000004          3.7106518234564289E-008
   3.5399999999999991          5.8732504208464405E-008
   3.5999999999999979          8.2669592075730133E-008
   3.6600000000000001          1.0906566583064264E-007
   3.7199999999999989          1.3807582933796285E-007
   3.7799999999999976          1.6986294554086728E-007
   3.8399999999999999          2.0459829927399784E-007
   3.8999999999999986          2.4246159966213115E-007
   3.9599999999999973          2.8364209536498056E-007
   4.0199999999999996          3.2833873004934093E-007
   4.0799999999999983          3.7676078925749552E-007
   4.1400000000000006          4.2912897707486186E-007
   4.1999999999999993          4.8567495554386012E-007
   4.2599999999999980          5.4664364983923879E-007
   4.3200000000000003          6.1229260009305789E-007
   4.3799999999999990          6.8289388723492852E-007
   4.4399999999999977          7.5873390676808746E-007
   4.5000000000000000          8.4011484019343708E-007
   4.5599999999999987          9.2735574527528897E-007
   4.6199999999999974          1.0207930069202908E-006
   4.6799999999999997          1.1207819710965237E-006
   4.7399999999999984          1.2276971830128408E-006
   4.7999999999999972          1.3419344554784192E-006
   4.8599999999999994          1.4639124492415200E-006
   4.9199999999999982          1.5940716180846985E-006
   4.9800000000000004          1.7328780592342212E-006
   5.0399999999999991          1.8808240518934895E-006
   5.0999999999999979          2.0384285261224828E-006
   5.1600000000000001          2.2062405296864809E-006
   5.2199999999999989          2.3848388039411818E-006
   5.2799999999999976          2.5748351793253607E-006
   5.3399999999999999          2.7768757698078332E-006
   5.3999999999999986          2.9916415957447093E-006
   5.4599999999999973          3.2198527495256304E-006
   5.5199999999999996          3.4622677703022434E-006
   5.5799999999999983          3.7196893961298783E-006
   5.6400000000000006          3.9929617011267903E-006
   5.6999999999999993          4.2829773960187983E-006
   5.7599999999999980          4.5906771346133291E-006
   5.8200000000000003          4.9170534213636230E-006
   5.8799999999999990          5.2631537651060398E-006
   5.9399999999999977          5.6300808914141550E-006
   6.0000000000000000          6.0189986690201615E-006
   6.0599999999999987          6.4311320336352762E-006
   6.1199999999999974          6.8677723379790139E-006
   6.1799999999999997          7.3302800973190714E-006
   6.2399999999999984          7.8200861462997271E-006
   6.2999999999999972          8.3387007645089941E-006
   6.3599999999999994          8.8877103716587215E-006
   6.4199999999999982          9.4687838360252595E-006
   6.4800000000000004          1.0083678564768004E-005
   6.5399999999999991          1.0734241477812399E-005
   6.5999999999999979          1.1422415810622362E-005
   6.6600000000000001          1.2150242296300605E-005
   6.7199999999999989          1.2919870137817081E-005
   6.7799999999999976          1.3733551526943011E-005
   6.8399999999999999          1.4593651997302623E-005
   6.8999999999999986          1.5502659183959104E-005
   6.9599999999999973          1.6463178338838199E-005
   7.0199999999999996          1.7477948445249857E-005
   7.0799999999999983          1.8549839327052709E-005
   7.1400000000000006          1.9681860524584908E-005
   7.1999999999999993          2.0877167906149986E-005
   7.2599999999999980          2.2139067769587471E-005
   7.3200000000000003          2.3471027848668741E-005
   7.3799999999999990          2.4876674271666012E-005
   7.4399999999999977          2.6359803840134399E-005
   7.5000000000000000          2.7924395952227408E-005
   7.5599999999999987          2.9574610357112815E-005
   7.6199999999999974          3.1314800420914497E-005
   7.6799999999999997          3.3149520353348460E-005
   7.7399999999999984          3.5083529844464130E-005
   7.7999999999999972          3.7121799436301316E-005
   7.8599999999999994          3.9269529983077938E-005
   7.9199999999999982          4.1532158638048052E-005
   7.9800000000000004          4.3915349064740507E-005
   8.0399999999999991          4.6425021263237309E-005
   8.1000000000000014          4.9067357470638258E-005
   8.1599999999999966          5.1848805468315522E-005
   8.2199999999999989          5.4776081617271717E-005
   8.2800000000000011          5.7856208509772717E-005
   8.3399999999999963          6.1096501874777291E-005
   8.3999999999999986          6.4504588292727796E-005
   8.4600000000000009          6.8088396015102576E-005
   8.5199999999999960          7.1856208973300671E-005
   8.5799999999999983          7.5816646431821260E-005
   8.6400000000000006          7.9978678269969716E-005