  -24.000000000000000          0.0000000000000000     
  -23.940000000000001          0.0000000000000000     
  -23.879999999999999          0.0000000000000000     
  -23.820000000000000          0.0000000000000000     
  -23.760000000000002          0.0000000000000000     
  -23.699999999999999          0.0000000000000000     
  -23.640000000000001          0.0000000000000000     
  -23.579999999999998          0.0000000000000000     
  -23.520000000000000          0.0000000000000000     
  -23.460000000000001          0.0000000000000000     
  -23.399999999999999          0.0000000000000000     
  -23.340000000000000          0.0000000000000000     
  -23.280000000000001          0.0000000000000000     
  -23.219999999999999          0.0000000000000000     
  -23.160000000000000          0.0000000000000000     
  -23.100000000000001          0.0000000000000000     
  -23.039999999999999          0.0000000000000000     
  -22.980000000000000          0.0000000000000000     
  -22.920000000000002          0.0000000000000000     
  -22.859999999999999          0.0000000000000000     
  -22.800000000000001          0.0000000000000000     
  -22.739999999999998          0.0000000000000000     
  -22.680000000000000          0.0000000000000000     
  -22.620000000000001          0.0000000000000000     
  -22.559999999999999          0.0000000000000000     
  -22.500000000000000          0.0000000000000000     
  -22.440000000000001          0.0000000000000000     
  -22.379999999999999          0.0000000000000000     
  -22.320000000000000          0.0000000000000000     
  -22.260000000000002          0.0000000000000000     
  -22.199999999999999          0.0000000000000000     
  -22.140000000000001          0.0000000000000000     
  -22.079999999999998          0.0000000000000000     
  -22.020000000000000          0.0000000000000000     
  -21.960000000000001          0.0000000000000000     
  -21.899999999999999          0.0000000000000000     
  -21.840000000000000          0.0000000000000000     
  -21.780000000000001          0.0000000000000000     
  -21.719999999999999          0.0000000000000000     
  -21.660000000000000          0.0000000000000000     
  -21.600000000000001          0.0000000000000000     
  -21.539999999999999          0.0000000000000000     
  -21.480000000000000          0.0000000000000000     
  -21.420000000000002          0.0000000000000000     
  -21.359999999999999          0.0000000000000000     
  -21.300000000000001          0.0000000000000000     
  -21.240000000000002          0.0000000000000000     
  -21.180000000000000          0.0000000000000000     
  -21.120000000000001          0.0000000000000000     
  -21.059999999999999          0.0000000000000000     
  -21.000000000000000          0.0000000000000000     
  -20.940000000000001          0.0000000000000000     
  -20.879999999999999          0.0000000000000000     
  -20.820000000000000          0.0000000000000000     
  -20.760000000000002          0.0000000000000000     
  -20.699999999999999          0.0000000000000000     
  -20.640000000000001          0.0000000000000000     
  -20.579999999999998          0.0000000000000000     
  -20.520000000000000          0.0000000000000000     
  -20.460000000000001          0.0000000000000000     
  -20.399999999999999          0.0000000000000000     
  -20.340000000000000          0.0000000000000000     
  -20.280000000000001          0.0000000000000000     
  -20.219999999999999          0.0000000000000000     
  -20.160000000000000          0.0000000000000000     
  -20.100000000000001          0.0000000000000000     
  -20.039999999999999          0.0000000000000000     
  -19.980000000000000          0.0000000000000000     
  -19.920000000000002          0.0000000000000000     
  -19.859999999999999          0.0000000000000000     
  -19.800000000000001          0.0000000000000000     
  -19.740000000000002          0.0000000000000000     
  -19.680000000000000          0.0000000000000000     
  -19.620000000000001          0.0000000000000000     
  -19.560000000000002          0.0000000000000000     
  -19.500000000000000          0.0000000000000000     
  -19.440000000000001          0.0000000000000000     
  -19.379999999999999          0.0000000000000000     
  -19.320000000000000          0.0000000000000000     
  -19.259999999999998          0.0000000000000000     
  -19.199999999999999         -1.0493723638139137E-040
  -19.140000000000001         -3.0055539118884250E-040
  -19.079999999999998         -5.9325823536734619E-040
  -19.020000000000000         -9.7188236131332421E-040
  -18.960000000000001         -1.4587764231870102E-039
  -18.899999999999999         -2.1521384576771083E-039
  -18.840000000000000         -3.0198743660795179E-039
  -18.780000000000001         -3.9489252689370056E-039
  -18.719999999999999         -5.3536737538569238E-039
  -18.660000000000000         -7.1880363665545254E-039
  -18.600000000000001         -9.2988003000707411E-039
  -18.539999999999999         -1.1469077137879492E-038
  -18.480000000000000         -1.2517948883457255E-038
  -18.420000000000002         -1.2800666448724123E-038
  -18.359999999999999         -1.2436077059692164E-038
  -18.300000000000001         -1.1114132893989303E-038
  -18.240000000000002         -8.5834708389684999E-039
  -18.180000000000000         -4.5047406469725917E-039
  -18.120000000000001          1.4830069809070405E-039
  -18.060000000000002          9.2209478548735874E-039
  -18.000000000000000          1.9186205730276961E-038
  -17.940000000000001          3.1423258196178632E-038
  -17.879999999999999          4.6018969158410063E-038
  -17.820000000000000          6.2973447816907448E-038
  -17.759999999999998          8.2577103971635074E-038
  -17.699999999999999          1.0455589684773743E-037
  -17.640000000000001          1.2448826868982487E-037
  -17.579999999999998          1.4457337960575970E-037
  -17.520000000000000          1.6441706912968494E-037
  -17.460000000000001          1.7891915798608623E-037
  -17.399999999999999          1.8543736020912961E-037
  -17.340000000000000          1.8209806064644452E-037
  -17.280000000000001          1.6474058001018104E-037
  -17.219999999999999          1.3011999588124468E-037
  -17.160000000000000          7.3978810615915849E-038
  -17.100000000000001         -7.4507110908525060E-039
  -17.039999999999999         -1.1823480149598807E-037
  -16.980000000000000         -2.6238057061630653E-037
  -16.920000000000002         -4.4190001496593343E-037
  -16.859999999999999         -6.5798383372862943E-037
  -16.800000000000001         -9.1411462271168389E-037
  -16.740000000000002         -1.2079536697028459E-036
  -16.680000000000000         -1.5286070520187724E-036
  -16.620000000000001         -1.8597696828097163E-036
  -16.560000000000002         -2.1970242535498219E-036
  -16.500000000000000         -2.5111729638158343E-036
  -16.440000000000001         -2.7708677670917761E-036
  -16.379999999999999         -2.9406291270035302E-036
  -16.320000000000000         -2.9858760667068862E-036
  -16.260000000000002         -2.8630693186046800E-036
  -16.199999999999999         -2.5111301543624517E-036
  -16.140000000000001         -1.8610494963881261E-036
  -16.079999999999998         -8.5287820318211797E-037
  -16.020000000000000          5.8014359498118818E-037
  -15.960000000000001          2.5025217649973160E-036
  -15.900000000000000          4.9814195160369492E-036
  -15.840000000000000          8.0690389915648579E-036
  -15.780000000000001          1.1814973677051875E-035
  -15.720000000000001          1.6158330778944417E-035
  -15.660000000000000          2.1085349022399422E-035
  -15.600000000000000          2.6484176657080736E-035
  -15.540000000000001          3.2202235523955745E-035
  -15.480000000000000          3.8025305509012312E-035
  -15.420000000000000          4.3655991866298103E-035
  -15.359999999999999          4.8704708853836297E-035
  -15.300000000000001          5.2681569814250274E-035
  -15.240000000000000          5.4986776623938606E-035
  -15.180000000000000          5.4921271183630171E-035
  -15.120000000000001          5.1711133567512862E-035
  -15.060000000000000          4.4482326755170183E-035
  -15.000000000000000          3.2241773745476697E-035
  -14.940000000000000          1.4012750562457936E-035
  -14.880000000000001         -1.1183665028218554E-035
  -14.820000000000000         -4.4275407170696474E-035
  -14.760000000000000         -8.6056169615361268E-035
  -14.700000000000001         -1.3709559433001856E-034
  -14.640000000000001         -1.9764935401961378E-034
  -14.580000000000000         -2.6752670691609565E-034
  -14.520000000000000         -3.4597440408877536E-034
  -14.460000000000001         -4.3153394849318592E-034
  -14.400000000000000         -5.2190168880513035E-034
  -14.340000000000000         -6.1378507961051405E-034
  -14.280000000000001         -7.0277237433992920E-034
  -14.220000000000001         -7.8321940529673294E-034
  -14.160000000000000         -8.4816921733620821E-034
  -14.100000000000000         -8.8931789049071032E-034
  -14.040000000000001         -8.9706988781587657E-034
  -13.980000000000000         -8.6058041293811440E-034
  -13.920000000000000         -7.6792066026411595E-034
  -13.860000000000001         -6.0643469191759815E-034
  -13.800000000000001         -3.6314921129282910E-034
  -13.740000000000000         -2.5327202613755115E-035
  -13.680000000000000          4.1882007506365110E-034
  -13.620000000000001          9.7926282522019821E-034
  -13.560000000000000          1.6631226023923898E-033
  -13.500000000000000          2.4734879739228240E-033
  -13.440000000000001          3.4081016261823422E-033
  -13.380000000000001          4.4579076520920820E-033
  -13.320000000000000          5.6055644873985286E-033
  -13.260000000000000          6.8239012357956950E-033
  -13.200000000000001          8.0744599892734459E-033
  -13.140000000000001          9.3061424451131192E-033
  -13.080000000000000          1.0454114146785127E-032
  -13.020000000000000          1.1439015562754696E-032
  -12.960000000000001          1.2166730455758803E-032
  -12.900000000000000          1.2528699325524913E-032
  -12.840000000000000          1.2403052286790213E-032
  -12.780000000000001          1.1656654674486995E-032
  -12.720000000000001          1.0148234476324096E-032
  -12.660000000000000          7.7327276225571151E-033
  -12.600000000000000          4.2669640295062544E-033
  -12.540000000000001         -3.8322494160553333E-034
  -12.480000000000000         -6.3344184346544310E-033
  -12.420000000000000         -1.3675552127787792E-032
  -12.360000000000001         -2.2456491469095353E-032
  -12.300000000000001         -3.2675352064152116E-032
  -12.240000000000000         -4.4264858468242975E-032
  -12.180000000000000         -5.7078067625099483E-032
  -12.120000000000001         -7.0873994799298391E-032
  -12.060000000000000         -8.5303659619623283E-032
  -12.000000000000000         -9.9897364734552085E-032
  -11.940000000000001         -1.1405401887260713E-031
  -11.880000000000001         -1.2703351502294102E-031
  -11.820000000000000         -1.3795322798328303E-031
  -11.760000000000000         -1.4578979434432397E-031
  -11.700000000000001         -1.4938750733390861E-031
  -11.640000000000001         -1.4747440432862466E-031
  -11.580000000000000         -1.3868746130047422E-031
  -11.520000000000000         -1.2160781843459333E-031
  -11.460000000000001         -9.4807160153268045E-032
  -11.400000000000000         -5.6905920890530156E-032
  -11.340000000000000         -6.6436668007589808E-033
  -11.280000000000001          5.7038296791263845E-032
  -11.220000000000001          1.3490259574232019E-031
  -11.160000000000000          2.2731102911757045E-031
  -11.100000000000000          3.3411097621174757E-031
  -11.040000000000001          4.5451587553169522E-031
  -10.980000000000000          5.8698309508302211E-031
  -10.920000000000000          7.2909328102560405E-031
  -10.860000000000001          8.7743734951923130E-031
  -10.800000000000001          1.0275163434174500E-030
  -10.740000000000000          1.1736622222769841E-030
  -10.680000000000000          1.3089863932335032E-030
  -10.620000000000001          1.4253662500374098E-030
  -10.560000000000000          1.5134765506238978E-030
  -10.500000000000000          1.5628769342738183E-030
  -10.440000000000001          1.5621635627272489E-030
  -10.380000000000001          1.4991937681768576E-030
  -10.320000000000000          1.3613908880548932E-030
  -10.260000000000000          1.1361368711904100E-030
  -10.200000000000001          8.1125505851959278E-031
  -10.140000000000001          3.7558583832943284E-031
  -10.080000000000000         -1.8034650419922190E-031
  -10.020000000000001         -8.6358162513897204E-031
  -9.9600000000000009         -1.6778953298356080E-030
  -9.9000000000000004         -2.6229123958745127E-030
  -9.8399999999999999         -3.6931764077528287E-030
  -9.7800000000000011         -4.8772101751500449E-030
  -9.7200000000000006         -6.1565921487546872E-030
  -9.6600000000000001         -7.5050911659416442E-030
  -9.6000000000000014         -8.8879038170136291E-030
  -9.5400000000000009         -1.0261048297195039E-029
  -9.4800000000000004         -1.1570961597502431E-029
  -9.4199999999999999         -1.2754367709786870E-029
  -9.3600000000000012         -1.3738475180998741E-029
  -9.3000000000000007         -1.4441568819024338E-029
  -9.2400000000000002         -1.4774052431900525E-029
  -9.1799999999999997         -1.4640004814251910E-029
  -9.1200000000000010         -1.3939299141414990E-029
  -9.0600000000000005         -1.2570325554339456E-029
  -9.0000000000000000         -1.0433339483060270E-029
  -8.9400000000000013         -7.4344599698052912E-030
  -8.8800000000000008         -3.4902902968825527E-030
  -8.8200000000000003          1.4668599886648131E-030
  -8.7599999999999998          7.4832196332158771E-030
  -8.7000000000000011          1.4577362392893950E-029
  -8.6400000000000006          2.2733704672963193E-029
  -8.5800000000000001          3.1895859157404611E-029
  -8.5200000000000014          4.1960037137809546E-029
  -8.4600000000000009          5.2768771674760232E-029
  -8.4000000000000004          6.4105196419692062E-029
  -8.3399999999999999          7.5688228880089309E-029
  -8.2800000000000011          8.7169006390229423E-029
  -8.2200000000000006          9.8128874451765206E-029
  -8.1600000000000001          1.0807942738848141E-028
  -8.1000000000000014          1.1646492384114379E-028
  -8.0400000000000009          1.2266744493165176E-028
  -7.9800000000000004          1.2601522534512483E-028
  -7.9200000000000017          1.2579442427089021E-028
  -7.8599999999999994          1.2126474315365466E-028
  -7.8000000000000007          1.1167890193008738E-028
  -7.7400000000000020          9.6306286134251479E-029
  -7.6799999999999997          7.4460652861763696E-029
  -7.6200000000000010          4.5531781664994578E-029
  -7.5600000000000023          9.0208412584371767E-030
  -7.5000000000000000         -3.5421071585211232E-029
  -7.4400000000000013         -8.7951811052396036E-029
  -7.3799999999999990         -1.4849535737917434E-028
  -7.3200000000000003         -2.1669840396142097E-028
  -7.2600000000000016         -2.9188746949703765E-028
  -7.1999999999999993         -3.7302836174321400E-028
  -7.1400000000000006         -4.5868942241032796E-028
  -7.0800000000000018         -5.4701047222679844E-028
  -7.0199999999999996         -6.3567992366719644E-028
  -6.9600000000000009         -7.2192151691660980E-028
  -6.9000000000000021         -8.0249363521992761E-028
  -6.8399999999999999         -8.7370335596495383E-028
  -6.7800000000000011         -9.3143701985584894E-028
  -6.7199999999999989         -9.7121030322094842E-028
  -6.6600000000000001         -9.8823862111673519E-028
  -6.6000000000000014         -9.7753045994186350E-028
  -6.5399999999999991         -9.3400424939550326E-028
  -6.4800000000000004         -8.5262986100901716E-028
  -6.4200000000000017         -7.2859392984936840E-028
  -6.3599999999999994         -5.5748956927581488E-028
  -6.3000000000000007         -3.3552745013416490E-028
  -6.2400000000000020         -5.9767234140003036E-029
  -6.1799999999999997          2.7163550635673206E-028
  -6.1200000000000010          6.5917063856826354E-028
  -6.0600000000000023          1.1017095966648830E-027
  -6.0000000000000000          1.5962426299265798E-027
  -5.9400000000000013          2.1376258188807937E-027
  -5.8799999999999990          2.7183469317883324E-027
  -5.8200000000000003          3.3283196193679538E-027
  -5.7600000000000016          3.9547200172364155E-027
  -5.6999999999999993          4.5818732108076483E-027
  -5.6400000000000006          5.1912054233949713E-027
  -5.5800000000000018          5.7612743765391709E-027
  -5.5199999999999996          6.2678869200017686E-027
  -5.4600000000000009          6.6843207065109466E-027
  -5.4000000000000021          6.9816578535747685E-027
  -5.3399999999999999          7.1292387863062952E-027
  -5.2800000000000011          7.0952487339243057E-027
  -5.2200000000000024          6.8474387248975825E-027
  -5.1600000000000001          6.3539800883866087E-027
  -5.1000000000000014          5.5844612549640961E-027
  -5.0399999999999991          4.5110066653283741E-027
  -4.9800000000000004          3.1095224778299432E-027
  -4.9200000000000017          1.3610416109361201E-027
  -4.8599999999999994         -7.4684255048618076E-028
  -4.8000000000000007         -3.2184886523095795E-027
  -4.7400000000000020         -6.0486941693853784E-027
  -4.6799999999999997         -9.2211931188900303E-027
  -4.6200000000000010         -1.2707212257900889E-026
  -4.5600000000000023         -1.6464136489658937E-026
  -4.5000000000000000         -2.0434332419876693E-026
  -4.4400000000000013         -2.4544196289894736E-026
  -4.3799999999999990         -2.8703478064147327E-026
  -4.3200000000000003         -3.2804966565161203E-026
  -4.2600000000000016         -3.6724573120274531E-026
  -4.1999999999999993         -4.0321902963482995E-026
  -4.1400000000000006         -4.3441367183390781E-026
  -4.0800000000000018         -4.5913875639528356E-026
  -4.0199999999999996         -4.7559206777952740E-026
  -3.9600000000000009         -4.8189031308449443E-026
  -3.9000000000000021         -4.7610669872239702E-026
  -3.8399999999999999         -4.5631585714480311E-026
  -3.7800000000000011         -4.2064586657772797E-026
  -3.7200000000000024         -3.6733736585707533E-026
  -3.6600000000000001         -2.9480929090683424E-026
  -3.6000000000000014         -2.0173047733672579E-026
  -3.5399999999999991         -8.7095915744145752E-027
  -3.4800000000000004          4.9692848618549630E-027
  -3.4200000000000017          2.0874565353285209E-026
  -3.3599999999999994          3.8960095231885756E-026
  -3.3000000000000007          5.9114514174761042E-026
  -3.2400000000000020          8.1153561546813098E-026
  -3.1799999999999997          1.0481312432659547E-025
  -3.1200000000000010          1.2974317354512345E-025
  -3.0600000000000023          1.5550302380500188E-025
  -3.0000000000000000          1.8155814318988326E-025
  -2.9400000000000013          2.0727889060710863E-025
  -2.8800000000000026          2.3194153551825502E-025
  -2.8200000000000003          2.5473171824525635E-025
  -2.7600000000000016          2.7475090992127368E-025
  -2.6999999999999993          2.9102587291649559E-025
  -2.6400000000000006          3.0252160027872871E-025
  -2.5800000000000018          3.0815780115488156E-025
  -2.5199999999999996          3.0682903511307254E-025
  -2.4600000000000009          2.9742855734188800E-025
  -2.4000000000000021          2.7887611934677386E-025
  -2.3399999999999999          2.5014905602468729E-025
  -2.2800000000000011          2.1031697520747871E-025
  -2.2200000000000024          1.5857935273792705E-025
  -2.1600000000000001          9.4305828312203131E-026
  -2.1000000000000014          1.7078278905018714E-026
  -2.0399999999999991         -7.3265739549475478E-026
  -1.9800000000000004         -1.7658931695078583E-025
  -1.9200000000000017         -2.9241305315424897E-025
  -1.8599999999999994         -4.1987375372287745E-025
  -1.8000000000000007         -5.5768632540549076E-025
  -1.7400000000000020         -7.0410993221850208E-025
  -1.6799999999999997         -8.5692011092080767E-025
  -1.6200000000000010         -1.0133883147324560E-024
  -1.5600000000000023         -1.1702706796979351E-024
  -1.5000000000000000         -1.3238071197446637E-024
  -1.4400000000000013         -1.4697326162147889E-024
  -1.3800000000000026         -1.6033027043950694E-024
  -1.3200000000000003         -1.7193335981971684E-024
  -1.2600000000000016         -1.8122588713645107E-024
  -1.1999999999999993         -1.8762038781006002E-024
  -1.1400000000000006         -1.9050780920689777E-024
  -1.0800000000000018         -1.8926865167822197E-024
  -1.0199999999999996         -1.8328596062439791E-024
 -0.96000000000000085         -1.7196030800074757E-024
 -0.90000000000000213         -1.5472635792523782E-024
 -0.83999999999999986         -1.3107132733743200E-024
 -0.78000000000000114         -1.0055478443233582E-024
 -0.72000000000000242         -6.2829720006550073E-025
 -0.66000000000000014         -1.7664665264694470E-025
 -0.60000000000000142          3.5033808777375757E-025
 -0.53999999999999915          9.5198208618495442E-025
 -0.48000000000000043          1.6257779737218152E-024
 -0.42000000000000171          2.3671706282483097E-024
 -0.35999999999999943          3.1693569118330163E-024
 -0.30000000000000071          4.0231086032091215E-024
 -0.24000000000000199          4.9166226526140678E-024
 -0.17999999999999972          5.8354089289005714E-024
 -0.12000000000000099          6.7622223516777603E-024
  -6.0000000000002274E-002     7.6770461024815049E-024
   0.0000000000000000          8.5571348770476645E-024
   5.9999999999998721E-002     9.3771277286690530E-024
  0.11999999999999744          1.0109228448368934E-023
  0.17999999999999972          1.0723474742457761E-023
  0.23999999999999844          1.1188089945973004E-023
  0.30000000000000071          1.1469925204025936E-023
  0.35999999999999943          1.1534994513764386E-023
  0.41999999999999815          1.1349106353823029E-023
  0.48000000000000043          1.0878591679524679E-023
  0.53999999999999915          1.0091120779011213E-023
  0.59999999999999787          8.9566114404577330E-024
  0.66000000000000014          7.4482114941927318E-024
  0.71999999999999886          5.5433565585470523E-024
  0.77999999999999758          3.2248833868263000E-024
  0.83999999999999986          4.8218495370761023E-025
  0.89999999999999858         -2.6876186028309237E-024
  0.96000000000000085         -6.2784986495695022E-024
   1.0199999999999996         -1.0274373545483292E-023
   1.0799999999999983         -1.4648011374609050E-023
   1.1400000000000006         -1.9360013342339333E-023
   1.1999999999999993         -2.4357923302956885E-023
   1.2599999999999980         -2.9575484449489430E-023
   1.3200000000000003         -3.4932088458590805E-023
   1.3799999999999990         -4.0332442712184487E-023
   1.4399999999999977         -4.5666523377236786E-023
   1.5000000000000000         -5.0809798558983371E-023
   1.5599999999999987         -5.5623827577522738E-023
   1.6199999999999974         -5.9957206817977003E-023
   1.6799999999999997         -6.3646930057407647E-023
   1.7399999999999984         -6.6520186975883144E-023
   1.8000000000000007         -6.8396598524812930E-023
   1.8599999999999994         -6.9090947163451148E-023
   1.9199999999999982         -6.8416342165868821E-023
   1.9800000000000004         -6.6187921610804990E-023
   2.0399999999999991         -6.2226955299752969E-023
   2.0999999999999979         -5.6365436823080116E-023
   2.1600000000000001         -4.8451061850519511E-023
   2.2199999999999989         -3.8352557496150572E-023
   2.2799999999999976         -2.5965344077912162E-023
   2.3399999999999999         -1.1217414742400929E-023
   2.3999999999999986          5.9246837493986960E-024
   2.4599999999999973          2.5449771838762254E-023
   2.5199999999999996          4.7296115080699934E-023
   2.5799999999999983          7.1345643889132557E-023
   2.6400000000000006          9.7418595879767663E-023
   2.6999999999999993          1.2526863836259344E-022
   2.7599999999999980          1.5457869566515721E-022
   2.8200000000000003          1.8495763658177674E-022
   2.8799999999999990          2.1593798453441614E-022
   2.9399999999999977          2.4697483975104326E-022
   3.0000000000000000          2.7744626785150745E-022
   3.0599999999999987          3.0665522659701182E-022
   3.1199999999999974          3.3383327000532194E-022
   3.1799999999999997          3.5814610353832414E-022
   3.2399999999999984          3.7870137725420266E-022
   3.3000000000000007          3.9455843897165499E-022
   3.3599999999999994          4.0474047637103315E-022
   3.4199999999999982          4.0824888577832788E-022
   3.4800000000000004          4.0408023446524848E-022
   3.5399999999999991          3.9124523627455177E-022
   3.5999999999999979          3.6879012188305365E-022
   3.6600000000000001          3.3582017566468891E-022
   3.7199999999999989          2.9152520263156138E-022
   3.7799999999999976          2.3520656666785817E-022
   3.8399999999999999          1.6630585778342391E-022
   3.8999999999999986          8.4434391021329180E-023
   3.9599999999999973         -1.0596600098881837E-023
   4.0199999999999996         -1.1874576409499702E-022
   4.0799999999999983         -2.3971180218305967E-022
   4.1400000000000006         -3.7290491178784472E-022
   4.1999999999999993         -5.1741991924782937E-022
   4.2599999999999980         -6.7201214275263205E-022
   4.3200000000000003         -8.3507638950704637E-022
   4.3799999999999990         -1.0046301178172881E-021
   4.4399999999999977         -1.1783020429205221E-021
   4.5000000000000000         -1.3533258680188806E-021
   4.5599999999999987         -1.5265417566839701E-021
   4.6199999999999974         -1.6944039184751792E-021
   4.6799999999999997         -1.8529984052978997E-021
   4.7399999999999984         -1.9980682395951253E-021
   4.7999999999999972         -2.1250493468576563E-021
   4.8599999999999994         -2.2291166529086411E-021
   4.9199999999999982         -2.3052398681834174E-021
   4.9800000000000004         -2.3482522109263231E-021
   5.0399999999999991         -2.3529283081241237E-021
   5.0999999999999979         -2.3140737746936817E-021
   5.1600000000000001         -2.2266260066874185E-021
   5.2199999999999989         -2.0857649686035829E-021
   5.2799999999999976         -1.8870326051519522E-021
   5.3399999999999999         -1.6264608366852163E-021
   5.3999999999999986         -1.3007079035424167E-021
   5.4599999999999973         -9.0719791101348679E-022
   5.5199999999999996         -4.4426562908783190E-022
   5.5799999999999983          8.8698552298150200E-023
   5.6400000000000006          6.9110435348722472E-022
   5.6999999999999993          1.3610214363840179E-021
   5.7599999999999980          2.0950463643649300E-021
   5.8200000000000003          2.8881794628506053E-021
   5.8799999999999990          3.7337166719624518E-021
   5.9399999999999977          4.6231562552406499E-021
   6.0000000000000000          5.5461288576009366E-021
   6.0599999999999987          6.4903517649334724E-021
   6.1199999999999974          7.4416106728452583E-021
   6.1799999999999997          8.3837760097682062E-021
   6.2399999999999984          9.2988518707534245E-021
   6.2999999999999972          1.0167067472883741E-020
   6.3599999999999994          1.0967008825304469E-020
   6.4199999999999982          1.1675796140679707E-020
   6.4800000000000004          1.2269307806098254E-020
   6.5399999999999991          1.2722452060213594E-020
   6.5999999999999979          1.3009490413410088E-020
   6.6600000000000001          1.3104409791896853E-020
   6.7199999999999989          1.2981342948115776E-020
   6.7799999999999976          1.2615035993493407E-020
   6.8399999999999999          1.1981362432621349E-020
   6.8999999999999986          1.1057874188133664E-020
   6.9599999999999973          9.8243949599550636E-021
   7.0199999999999996          8.2636361788033157E-021
   7.0799999999999983          6.3618430186737516E-021
   7.1400000000000006          4.1094483407346892E-021
   7.1999999999999993          1.5017374013560512E-021
   7.2599999999999980         -1.4604981678034307E-021
   7.3200000000000003         -4.7703216653425651E-021
   7.3799999999999990         -8.4140444069669696E-021
   7.4399999999999977         -1.2370661144056056E-020
   7.5000000000000000         -1.6611346153122304E-020
   7.5599999999999987         -2.1099024074135833E-020
   7.6199999999999974         -2.5788028282710338E-020
   7.6799999999999997         -3.0623863408059494E-020
   7.7399999999999984         -3.5543096336691617E-020
   7.7999999999999972         -4.0473371461010946E-020
   7.8599999999999994         -4.5333588697883242E-020
   7.9199999999999982         -5.0034238801714678E-020
   7.9800000000000004         -5.4477916990026135E-020
   8.0399999999999991         -5.8560031518865425E-020
   8.1000000000000014         -6.2169708224970168E-020
   8.1599999999999966         -6.5190884304563387E-020
   8.2199999999999989         -6.7503638807230974E-020
   8.2800000000000011         -6.8985710032285058E-020
   8.3399999999999963         -6.9514230318982610E-020
   8.3999999999999986         -6.8967661775137786E-020
   8.4600000000000009         -6.7227924355724241E-020
   8.5199999999999960         -6.4182725082076070E-020
   8.5799999999999983         -5.9727983110569547E-020
   8.6400000000000006         -5.3770472074172184E-020