  -24.000000000000000          0.0000000000000000     
  -23.940000000000001          0.0000000000000000     
  -23.879999999999999          0.0000000000000000     
  -23.820000000000000          0.0000000000000000     
  -23.760000000000002          0.0000000000000000     
  -23.699999999999999          0.0000000000000000     
  -23.640000000000001          0.0000000000000000     
  -23.579999999999998          0.0000000000000000     
  -23.520000000000000          0.0000000000000000     
  -23.460000000000001          0.0000000000000000     
  -23.399999999999999          0.0000000000000000     
  -23.340000000000000          0.0000000000000000     
  -23.280000000000001          0.0000000000000000     
  -23.219999999999999          0.0000000000000000     
  -23.160000000000000          0.0000000000000000     
  -23.100000000000001          0.0000000000000000     
  -23.039999999999999          0.0000000000000000     
  -22.980000000000000          0.0000000000000000     
  -22.920000000000002          0.0000000000000000     
  -22.859999999999999          0.0000000000000000     
  -22.800000000000001          0.0000000000000000     
  -22.739999999999998          0.0000000000000000     
  -22.680000000000000          0.0000000000000000     
  -22.620000000000001          0.0000000000000000     
  -22.559999999999999          0.0000000000000000     
  -22.500000000000000          0.0000000000000000     
  -22.440000000000001          0.0000000000000000     
  -22.379999999999999          0.0000000000000000     
  -22.320000000000000          0.0000000000000000     
  -22.260000000000002          0.0000000000000000     
  -22.199999999999999          0.0000000000000000     
  -22.140000000000001          0.0000000000000000     
  -22.079999999999998          0.0000000000000000     
  -22.020000000000000          0.0000000000000000     
  -21.960000000000001          0.0000000000000000     
  -21.899999999999999          0.0000000000000000     
  -21.840000000000000          0.0000000000000000     
  -21.780000000000001          0.0000000000000000     
  -21.719999999999999          0.0000000000000000     
  -21.660000000000000          0.0000000000000000     
  -21.600000000000001          0.0000000000000000     
  -21.539999999999999          0.0000000000000000     
  -21.480000000000000          0.0000000000000000     
  -21.420000000000002          0.0000000000000000     
  -21.359999999999999          0.0000000000000000     
  -21.300000000000001          0.0000000000000000     
  -21.240000000000002          0.0000000000000000     
  -21.180000000000000          0.0000000000000000     
  -21.120000000000001          0.0000000000000000     
  -21.059999999999999          0.0000000000000000     
  -21.000000000000000          0.0000000000000000     
  -20.940000000000001          0.0000000000000000     
  -20.879999999999999          0.0000000000000000     
  -20.820000000000000          0.0000000000000000     
  -20.760000000000002          0.0000000000000000     
  -20.699999999999999          0.0000000000000000     
  -20.640000000000001          0.0000000000000000     
  -20.579999999999998          0.0000000000000000     
  -20.520000000000000          0.0000000000000000     
  -20.460000000000001          0.0000000000000000     
  -20.399999999999999          0.0000000000000000     
  -20.340000000000000          0.0000000000000000     
  -20.280000000000001          0.0000000000000000     
  -20.219999999999999          0.0000000000000000     
  -20.160000000000000          0.0000000000000000     
  -20.100000000000001          0.0000000000000000     
  -20.039999999999999          0.0000000000000000     
  -19.980000000000000          0.0000000000000000     
  -19.920000000000002          0.0000000000000000     
  -19.859999999999999          0.0000000000000000     
  -19.800000000000001          0.0000000000000000     
  -19.740000000000002          0.0000000000000000     
  -19.680000000000000          0.0000000000000000     
  -19.620000000000001          0.0000000000000000     
  -19.560000000000002          0.0000000000000000     
  -19.500000000000000          0.0000000000000000     
  -19.440000000000001          0.0000000000000000     
  -19.379999999999999          0.0000000000000000     
  -19.320000000000000          0.0000000000000000     
  -19.259999999999998          0.0000000000000000     
  -19.199999999999999          0.0000000000000000     
  -19.140000000000001          0.0000000000000000     
  -19.079999999999998          0.0000000000000000     
  -19.020000000000000          0.0000000000000000     
  -18.960000000000001          0.0000000000000000     
  -18.899999999999999          0.0000000000000000     
  -18.840000000000000          0.0000000000000000     
  -18.780000000000001          0.0000000000000000     
  -18.719999999999999          0.0000000000000000     
  -18.660000000000000          0.0000000000000000     
  -18.600000000000001          0.0000000000000000     
  -18.539999999999999          0.0000000000000000     
  -18.480000000000000          0.0000000000000000     
  -18.420000000000002          0.0000000000000000     
  -18.359999999999999          0.0000000000000000     
  -18.300000000000001          0.0000000000000000     
  -18.240000000000002          0.0000000000000000     
  -18.180000000000000          0.0000000000000000     
  -18.120000000000001          0.0000000000000000     
  -18.060000000000002          0.0000000000000000     
  -18.000000000000000          0.0000000000000000     
  -17.940000000000001          0.0000000000000000     
  -17.879999999999999          0.0000000000000000     
  -17.820000000000000          0.0000000000000000     
  -17.759999999999998          0.0000000000000000     
  -17.699999999999999          0.0000000000000000     
  -17.640000000000001          0.0000000000000000     
  -17.579999999999998          0.0000000000000000     
  -17.520000000000000          0.0000000000000000     
  -17.460000000000001          0.0000000000000000     
  -17.399999999999999          0.0000000000000000     
  -17.340000000000000          0.0000000000000000     
  -17.280000000000001          0.0000000000000000     
  -17.219999999999999          0.0000000000000000     
  -17.160000000000000          0.0000000000000000     
  -17.100000000000001          0.0000000000000000     
  -17.039999999999999          0.0000000000000000     
  -16.980000000000000          0.0000000000000000     
  -16.920000000000002          0.0000000000000000     
  -16.859999999999999          0.0000000000000000     
  -16.800000000000001          0.0000000000000000     
  -16.740000000000002          0.0000000000000000     
  -16.680000000000000          0.0000000000000000     
  -16.620000000000001          0.0000000000000000     
  -16.560000000000002          0.0000000000000000     
  -16.500000000000000          0.0000000000000000     
  -16.440000000000001          0.0000000000000000     
  -16.379999999999999          0.0000000000000000     
  -16.320000000000000          0.0000000000000000     
  -16.260000000000002          0.0000000000000000     
  -16.199999999999999          0.0000000000000000     
  -16.140000000000001          0.0000000000000000     
  -16.079999999999998          0.0000000000000000     
  -16.020000000000000          0.0000000000000000     
  -15.960000000000001         -9.0526982471566406E-042
  -15.900000000000000         -2.5036331425493949E-041
  -15.840000000000000         -4.8548929512306459E-041
  -15.780000000000001         -7.9938646688755790E-041
  -15.720000000000001         -1.1918794237433702E-040
  -15.660000000000000         -1.6579342747565929E-040
  -15.600000000000000         -2.1734424837168011E-040
  -15.540000000000001         -2.7035690310640706E-040
  -15.480000000000000         -3.2336955784113401E-040
  -15.420000000000000         -3.7638221257586096E-040
  -15.359999999999999         -4.2435015297077597E-040
  -15.300000000000001         -4.5014847309040877E-040
  -15.240000000000000         -4.5811013018542523E-040
  -15.180000000000000         -4.5811013018542523E-040
  -15.120000000000001         -3.7970974747083542E-040
  -15.060000000000000         -2.1505619430938457E-040
  -15.000000000000000          3.3637359724648716E-041
  -14.940000000000000          3.5858301697497336E-040
  -14.880000000000001          7.6401977559769981E-040
  -14.820000000000000          1.2146662338261539E-039
  -14.760000000000000          1.7064555181980361E-039
  -14.700000000000001          2.2320263491203121E-039
  -14.640000000000001          2.8152468080964498E-039
  -14.580000000000000          3.4048567489209688E-039
  -14.520000000000000          3.9385731361449087E-039
  -14.460000000000001          4.4330532858671070E-039
  -14.400000000000000          4.7708377044947490E-039
  -14.340000000000000          4.9366294699829871E-039
  -14.280000000000001          4.9605219259685671E-039
  -14.220000000000001          4.8271479659065281E-039
  -14.160000000000000          4.5103889694400236E-039
  -14.100000000000000          3.9848447766429175E-039
  -14.040000000000001          3.2272996654351615E-039
  -13.980000000000000          2.2185609368545717E-039
  -13.920000000000000          9.2726215470230343E-040
  -13.860000000000001         -6.5671233154615778E-040
  -13.800000000000001         -2.5021266038383149E-039
  -13.740000000000000         -4.5798711303373872E-039
  -13.680000000000000         -6.6075030348690560E-039
  -13.620000000000001         -8.5696998665763741E-039
  -13.560000000000000         -1.0401685153632646E-038
  -13.500000000000000         -1.2062640170787093E-038
  -13.440000000000001         -1.3642317632469678E-038
  -13.380000000000001         -1.4479747517073121E-038
  -13.320000000000000         -1.4552147843619265E-038
  -13.260000000000000         -1.3641301586809056E-038
  -13.200000000000001         -1.1491573801297817E-038
  -13.140000000000001         -7.8396128728431213E-039
  -13.080000000000000         -2.4258336194649060E-039
  -13.020000000000000          4.9908319973202599E-039
  -12.960000000000001          1.4523706340954225E-038
  -12.900000000000000          2.6441410409605742E-038
  -12.840000000000000          4.0829150862933892E-038
  -12.780000000000001          5.7662551049445669E-038
  -12.720000000000001          7.5968873782651942E-038
  -12.660000000000000          9.5422036514042210E-038
  -12.600000000000000          1.1655834278979744E-037
  -12.540000000000001          1.3886082307024270E-037
  -12.480000000000000          1.6121873414060718E-037
  -12.420000000000000          1.8045467573380804E-037
  -12.360000000000001          1.9592692088695244E-037
  -12.300000000000001          2.0480639702460073E-037
  -12.240000000000000          2.0425006830076353E-037
  -12.180000000000000          1.9175213970907128E-037
  -12.120000000000001          1.6450812391780749E-037
  -12.060000000000000          1.2044162168980194E-037
  -12.000000000000000          5.7895264199303084E-038
  -11.940000000000001         -2.6030742374627057E-038
  -11.880000000000001         -1.3314269423079262E-037
  -11.820000000000000         -2.6677913985333098E-037
  -11.760000000000000         -4.2654442316977234E-037
  -11.700000000000001         -6.1125082148558020E-037
  -11.640000000000001         -8.1841878526309356E-037
  -11.580000000000000         -1.0440482992561527E-036
  -11.520000000000000         -1.2821083293179170E-036
  -11.460000000000001         -1.5241325522243580E-036
  -11.400000000000000         -1.7590067437758070E-036
  -11.340000000000000         -1.9728367442956502E-036
  -11.280000000000001         -2.1488529560981589E-036
  -11.220000000000001         -2.2674154453837249E-036
  -11.160000000000000         -2.3056381515254977E-036
  -11.100000000000000         -2.2391477272916290E-036
  -11.040000000000001         -2.0409389630559840E-036
  -10.980000000000000         -1.6853711218325358E-036
  -10.920000000000000         -1.1471245616739877E-036
  -10.860000000000001         -3.8784964029316682E-037
  -10.800000000000001          6.1418352808745918E-037
  -10.740000000000000          1.8770321059460833E-036
  -10.680000000000000          3.4152749021814751E-036
  -10.620000000000001          5.2311322160650144E-036
  -10.560000000000000          7.3156089937206053E-036
  -10.500000000000000          9.6447524551702541E-036
  -10.440000000000001          1.2176369268050483E-035
  -10.380000000000001          1.4847241553627335E-035
  -10.320000000000000          1.7569770361769828E-035
  -10.260000000000000          2.0231836359920439E-035
  -10.200000000000001          2.2691750475310524E-035
  -10.140000000000001          2.4781075647801838E-035
  -10.080000000000000          2.6307136929422776E-035
  -10.020000000000001          2.7030856301016254E-035
  -9.9600000000000009          2.6733685342627542E-035
  -9.9000000000000004          2.5118179424660784E-035
  -9.8399999999999999          2.1918407682175468E-035
  -9.7800000000000011          1.6906756894495761E-035
  -9.7200000000000006          9.8256579703962118E-036
  -9.6600000000000001          4.4218457115993690E-037
  -9.6000000000000014         -1.1427467727602320E-035
  -9.5400000000000009         -2.5904516151118629E-035
  -9.4800000000000004         -4.3026239207734126E-035
  -9.4199999999999999         -6.2722971891542691E-035
  -9.3600000000000012         -8.4794229043239250E-035
  -9.3000000000000007         -1.0888011607032798E-034
  -9.2400000000000002         -1.3444328306169837E-034
  -9.1799999999999997         -1.6075146844063349E-034
  -9.1200000000000010         -1.8685975906215742E-034
  -9.0600000000000005         -2.1159189416566208E-034
  -9.0000000000000000         -2.3345913108282859E-034
  -8.9400000000000013         -2.5083591939596056E-034
  -8.8800000000000008         -2.6182704496246019E-034
  -8.8200000000000003         -2.6434397873878305E-034
  -8.7599999999999998         -2.5613898601624906E-034
  -8.7000000000000011         -2.3486213333605801E-034
  -8.6400000000000006         -1.9813584407141517E-034
  -8.5800000000000001         -1.4364892423277632E-034
  -8.5200000000000014         -6.9269670785605893E-035
  -8.4600000000000009          2.6822691561514083E-035
  -8.4000000000000004          1.4598429076495571E-034
  -8.3399999999999999          2.8893668293572813E-034
  -8.2800000000000011          4.5558715507306938E-034
  -8.2200000000000006          6.4483761177603532E-034
  -8.1600000000000001          8.5438961527481784E-034
  -8.1000000000000014          1.0805596703337176E-033
  -8.0400000000000009          1.3180866857453354E-033
  -7.9800000000000004          1.5599840279745935E-033
  -7.9200000000000017          1.7974230445237746E-033
  -7.8599999999999994          2.0196412094399192E-033
  -7.8000000000000007          2.2139388703146254E-033
  -7.7400000000000020          2.3657399522744672E-033
  -7.6799999999999997          2.4587383556489094E-033
  -7.6200000000000010          2.4751551714392766E-033
  -7.5600000000000023          2.3961083142414614E-033
  -7.5000000000000000          2.2021099437358597E-033
  -7.4400000000000013          1.8737144700399760E-033
  -7.3799999999999990          1.3922878073832807E-033
  -7.3200000000000003          7.4093579401640909E-034
  -7.2600000000000016         -9.4424009377555572E-035
  -7.1999999999999993         -1.1238665472073866E-033
  -7.1400000000000006         -2.3521645523148825E-033
  -7.0800000000000018         -3.7773824221003149E-033
  -7.0199999999999996         -5.3894406098167048E-033
  -6.9600000000000009         -7.1686743208760968E-033
  -6.9000000000000021         -9.0844430769856711E-033
  -6.8399999999999999         -1.1093851813612415E-032
  -6.7800000000000011         -1.3140672835325773E-032
  -6.7199999999999989         -1.5154536719665580E-032
  -6.6600000000000001         -1.7050494986676913E-032
  -6.6000000000000014         -1.8729030423546270E-032
  -6.5399999999999991         -2.0076672347345923E-032
  -6.4800000000000004         -2.0967207738027628E-032
  -6.4200000000000017         -2.1263683965115808E-032
  -6.3599999999999994         -2.0821256214423290E-032
  -6.3000000000000007         -1.9490931551694193E-032
  -6.2400000000000020         -1.7124276879596586E-032
  -6.1799999999999997         -1.3579115897059202E-032
  -6.1200000000000010         -8.7262363603119706E-033
  -6.0600000000000023         -2.4570222826053558E-033
  -6.0000000000000000          5.3080526252234816E-033
  -5.9400000000000013          1.4610193654288829E-032
  -5.8799999999999990          2.5442534648365211E-032
  -5.8200000000000003          3.7740090161424293E-032
  -5.7600000000000016          5.1369733751463509E-032
  -5.6999999999999993          6.6120587197195790E-032
  -5.6400000000000006          8.1695226110431379E-032
  -5.5800000000000018          9.7702232389352764E-032
  -5.5199999999999996          1.1365061634329147E-031
  -5.4600000000000009          1.2894668720712133E-031
  -5.4000000000000021          1.4289404686237511E-031
  -5.3399999999999999          1.5469724722933486E-031
  -5.2800000000000011          1.6346984440939015E-031
  -5.2200000000000024          1.6824733266973421E-031
  -5.1600000000000001          1.6800557264499864E-031
  -5.1000000000000014          1.6168518149451286E-031
  -5.0399999999999991          1.4822207698068177E-031
  -4.9800000000000004          1.2658452598671821E-031
  -4.9200000000000017          9.5816473040095991E-032
  -4.8599999999999994          5.5087106230791548E-032
  -4.8000000000000007          3.7459107530680017E-033
  -4.7400000000000020         -5.8617441784195994E-032
  -4.6799999999999997         -1.3210964427806941E-031
  -4.6200000000000010         -2.1646822987455971E-031
  -4.5600000000000023         -3.1099578533391496E-031
  -4.5000000000000000         -4.1449627117198730E-031
  -4.4400000000000013         -5.2521606860871930E-031
  -4.3799999999999990         -6.4079260308270874E-031
  -4.3200000000000003         -7.5821403827297383E-031
  -4.2600000000000016         -8.7379322070542524E-031
  -4.1999999999999993         -9.8316023111390838E-031
  -4.1400000000000006         -1.0812764638801045E-030
  -4.0800000000000018         -1.1624749681269748E-030
  -4.0199999999999996         -1.2205298676456596E-030
  -3.9600000000000009         -1.2487588316964617E-030
  -3.9000000000000021         -1.2401608497980422E-030
  -3.8399999999999999         -1.1875915251773471E-030
  -3.7800000000000011         -1.0839779021628788E-030
  -3.7200000000000024         -9.2257195963947666E-031
  -3.6600000000000001         -6.9724235023520763E-031
  -3.6000000000000014         -4.0280147601651810E-031
  -3.5399999999999991         -3.5363819008453028E-032
  -3.4800000000000004          4.0727042279337010E-031
  -3.4200000000000017          9.2521553625385575E-031
  -3.3599999999999994          1.5160926276788391E-030
  -3.3000000000000007          2.1746283400056916E-030
  -3.2400000000000020          2.8922726781263175E-030
  -3.1799999999999997          3.6568542123098866E-030
  -3.1200000000000010          4.4522887855164461E-030
  -3.0600000000000023          5.2583624538955506E-030
  -3.0000000000000000          6.0506108313005326E-030
  -2.9400000000000013          6.8003141135313681E-030
  -2.8800000000000026          7.4746317954038435E-030
  -2.8200000000000003          8.0368955583158569E-030
  -2.7600000000000016          8.4470840963564196E-030
  -2.6999999999999993          8.6624954742183782E-030
  -2.6400000000000006          8.6386269223338439E-030
  -2.5800000000000018          8.3302825270193218E-030
  -2.5199999999999996          7.6929044054428642E-030
  -2.4600000000000009          6.6841280018362740E-030
  -2.4000000000000021          5.2655576863004558E-030
  -2.3399999999999999          3.4047330570341746E-030
  -2.2800000000000011          1.0772723177351174E-030
  -2.2200000000000024         -1.7308554357771514E-030
  -2.1600000000000001         -5.0209726834201955E-030
  -2.1000000000000014         -8.7793076992501516E-030
  -2.0399999999999991         -1.2974666566567823E-029
  -1.9800000000000004         -1.7556220569587724E-029
  -1.9200000000000017         -2.2451529046408543E-029
  -1.8599999999999994         -2.7564877318972751E-029
  -1.8000000000000007         -3.2776054620171684E-029
  -1.7400000000000020         -3.7939685415585314E-029
  -1.6799999999999997         -4.2885213358299448E-029
  -1.6200000000000010         -4.7417689950227037E-029
  -1.5600000000000023         -5.1319461517074455E-029
  -1.5000000000000000         -5.4352848179999488E-029
  -1.4400000000000013         -5.6263933327272329E-029
  -1.3800000000000026         -5.6787529575696893E-029
  -1.3200000000000003         -5.5653355438344063E-029
  -1.2600000000000016         -5.2593478054126500E-029
  -1.1999999999999993         -4.7350976625903971E-029
  -1.1400000000000006         -3.9689789825809123E-029
  -1.0800000000000018         -2.9405651221736515E-029
  -1.0199999999999996         -1.6337963138611182E-029
 -0.96000000000000085         -3.8239686312278525E-031
 -0.90000000000000213          1.8496023525631876E-029
 -0.83999999999999986          4.0249677863069614E-029
 -0.78000000000000114          6.4735322481264991E-029
 -0.72000000000000242          9.1701704197338812E-029
 -0.66000000000000014          1.2077830613455499E-028
 -0.60000000000000142          1.5146576396339003E-028
 -0.53999999999999915          1.8312848930747883E-028
 -0.48000000000000043          2.1499014427504793E-028
 -0.42000000000000171          2.4613252462234816E-028
 -0.35999999999999943          2.7549856793422846E-028
 -0.30000000000000071          3.0189992880082692E-028
 -0.24000000000000199          3.2402979789643137E-028
 -0.17999999999999972          3.4048140872500792E-028
 -0.12000000000000099          3.4977258610554717E-028
  -6.0000000000002274E-002     3.5037677100636917E-028
   0.0000000000000000          3.4076042534683135E-028
   5.9999999999998721E-002     3.1942709195345722E-028
  0.11999999999999744          2.8496762695299424E-028
  0.17999999999999972          2.3611617966069177E-028
  0.23999999999999844          1.7181165113333296E-028
  0.30000000000000071          9.1262945015450769E-029
  0.35999999999999943         -5.9824550718651537E-030
  0.41999999999999815         -1.1996848087783748E-028
  0.48000000000000043         -2.5026095382439757E-028
  0.53999999999999915         -3.9588026912137292E-028
  0.59999999999999787         -5.5523866102068557E-028
  0.66000000000000014         -7.2608514370267379E-028
  0.71999999999999886         -9.0545984827132690E-028
  0.77999999999999758         -1.0896620608149670E-027
  0.83999999999999986         -1.2742336047070856E-027
  0.89999999999999858         -1.4539616034367170E-027
  0.96000000000000085         -1.6229030610909878E-027
   1.0199999999999996         -1.7744343735111216E-027
   1.0799999999999983         -1.9013282501494535E-027
   1.1400000000000006         -1.9958597630480652E-027
   1.1999999999999993         -2.0499442922437636E-027
   1.2599999999999980         -2.0553071965218682E-027
   1.3200000000000003         -2.0036868284130313E-027
   1.3799999999999990         -1.8870681883726844E-027
   1.4399999999999977         -1.6979487994112411E-027
   1.5000000000000000         -1.4296318644709788E-027
   1.5599999999999987         -1.0765428154891304E-027
   1.6199999999999974         -6.3456561323295851E-028
   1.6799999999999997         -1.0139157297394378E-028
   1.7399999999999984          5.2312712819279451E-028
   1.8000000000000007          1.2366287230821026E-027
   1.8599999999999994          2.0339064968912619E-027
   1.9199999999999982          2.9066006196999736E-027
   1.9800000000000004          3.8429283956804574E-027
   2.0399999999999991          4.8274664806366334E-027
   2.0999999999999979          5.8409990159210467E-027
   2.1600000000000001          6.8604471501171600E-027
   2.2199999999999989          7.8588916534017883E-027
   2.2799999999999976          8.8057063240859803E-027
   2.3399999999999999          9.6668103909752625E-027
   2.3999999999999986          1.0405057816646071E-026
   2.4599999999999973          1.0980765886981304E-026
   2.5199999999999996          1.1352395761276209E-026
   2.5799999999999983          1.1477388445763406E-026
   2.6400000000000006          1.1313154330311896E-026
   2.6999999999999993          1.0818218274315021E-026
   2.7599999999999980          9.9535042530102863E-027
   2.8200000000000003          8.6837572322916535E-027
   2.8799999999999990          6.9790719972153874E-027
   2.9399999999999977          4.8165139701282317E-027
   3.0000000000000000          2.1818042996292255E-027
   3.0599999999999987         -9.2898158305201317E-028
   3.1199999999999974         -4.5077300566347382E-027
   3.1799999999999997         -8.5326697349720857E-027
   3.2399999999999984         -1.2966873052180914E-026
   3.3000000000000007         -1.7756935321801202E-026
   3.3599999999999994         -2.2831891732343824E-026
   3.4199999999999982         -2.8102430639013875E-026
   3.4800000000000004         -3.3460475343685919E-026
   3.5399999999999991         -3.8779201586185330E-026
   3.5999999999999979         -4.3913539054273195E-026
   3.6600000000000001         -4.8701231882552813E-026
   3.7199999999999989         -5.2964497399763981E-026
   3.7799999999999976         -5.6512338205441997E-026
   3.8399999999999999         -5.9143536778560264E-026
   3.8999999999999986         -6.0650356048593436E-026
   3.9599999999999973         -6.0822944146419699E-026
   4.0199999999999996         -5.9454439501768238E-026
   4.0799999999999983         -5.6346745173873029E-026
   4.1400000000000006         -5.1316919207310102E-026
   4.1999999999999993         -4.4204099804972239E-026
   4.2599999999999980         -3.4876857855753374E-026
   4.3200000000000003         -2.3240886029869591E-026
   4.3799999999999990         -9.2468003514667710E-027
   4.4399999999999977          7.1020203983339402E-027
   4.5000000000000000          2.5741875280171034E-026
   4.5599999999999987          4.6541563714350176E-026
   4.6199999999999974          6.9295959805827598E-026
   4.6799999999999997          9.3720488007788098E-026
   4.7399999999999984          1.1944686561068762E-025
   4.7999999999999972          1.4602029303103565E-025
   4.8599999999999994          1.7289849921954287E-025
   4.9199999999999982          1.9945275117415450E-025
   4.9800000000000004          2.2497126104895885E-025
   5.0399999999999991          2.4866514166111990E-025
   5.0999999999999979          2.6967706370940935E-025
   5.1600000000000001          2.8709286936724818E-025
   5.2199999999999989          2.9995629076465943E-025
   5.2799999999999976          3.0728665290668705E-025
   5.3399999999999999          3.0809972707971633E-025
   5.3999999999999986          3.0143160939469391E-025
   5.4599999999999973          2.8636529386185619E-025
   5.5199999999999996          2.6205987538367919E-025
   5.5799999999999983          2.2778194799590055E-025
   5.6400000000000006          1.8293855037373469E-025
   5.6999999999999993          1.2711137502021385E-025
   5.7599999999999980          6.0091294924477578E-026
   5.8200000000000003         -1.8087371497968837E-026
   5.8799999999999990         -1.0711400405880513E-025
   5.9399999999999977         -2.0637090416852956E-025
   6.0000000000000000         -3.1490581380018620E-025
   6.0599999999999987         -4.3140884400047342E-025
   6.1199999999999974         -5.5419489184282303E-025
   6.1799999999999997         -6.8119277261422191E-025
   6.2399999999999984         -8.0994216859153123E-025
   6.2999999999999972         -9.3759934099575837E-025
   6.3599999999999994         -1.0609533136738561E-024
   6.4199999999999982         -1.1764524911046951E-024
   6.4800000000000004         -1.2802432467886113E-024
   6.5399999999999991         -1.3682210486988482E-024
   6.5999999999999979         -1.4360939538529510E-024
   6.6600000000000001         -1.4794596472409109E-024
   6.7199999999999989         -1.4938945871689664E-024
   6.7799999999999976         -1.4750562007656300E-024
   6.8399999999999999         -1.4187962995024470E-024
   6.8999999999999986         -1.3212850612050681E-024
   6.9599999999999973         -1.1791438985406140E-024
   7.0199999999999996         -9.8958484708093425E-025
   7.0799999999999983         -7.5055491338854400E-025
   7.1400000000000006         -4.6088205376745739E-025
   7.1999999999999993         -1.2041899628749500E-025
   7.2599999999999980          2.6981716754362094E-025
   7.3200000000000003          7.0751486811076435E-025
   7.3799999999999990          1.1889513124100336E-024
   7.4399999999999977          1.7088928634084005E-024
   7.5000000000000000          2.2605178149141335E-024
   7.5599999999999987          2.8353660933182607E-024
   7.6199999999999974          3.4233199197747482E-024
   7.6799999999999997          4.0126202580405494E-024
   7.7399999999999984          4.5899239169542186E-024
   7.7999999999999972          5.1404031760937525E-024
   7.8599999999999994          5.6478929430043677E-024
   7.9199999999999982          6.0950869177653868E-024
   7.9800000000000004          6.4637858884533006E-024
   8.0399999999999991          6.7351963603620077E-024
   8.1000000000000014          6.8902807607705168E-024
   8.1599999999999966          6.9101599499329313E-024
   8.2199999999999989          6.7765592213294766E-024
   8.2800000000000011          6.4722997853617257E-024
   8.3399999999999963          5.9818258727536882E-024
   8.3999999999999986          5.2917625377771900E-024
   8.4600000000000009          4.3914925888854899E-024
   8.5199999999999960          3.2737451776962317E-024
   8.5799999999999983          1.9351828679700799E-024
   8.6400000000000006          3.7697272046237498E-025