  -24.000000000000000          0.0000000000000000     
  -23.940000000000001          0.0000000000000000     
  -23.879999999999999          0.0000000000000000     
  -23.820000000000000          0.0000000000000000     
  -23.760000000000002          0.0000000000000000     
  -23.699999999999999          0.0000000000000000     
  -23.640000000000001          0.0000000000000000     
  -23.579999999999998          0.0000000000000000     
  -23.520000000000000          0.0000000000000000     
  -23.460000000000001          0.0000000000000000     
  -23.399999999999999          0.0000000000000000     
  -23.340000000000000          0.0000000000000000     
  -23.280000000000001          0.0000000000000000     
  -23.219999999999999          0.0000000000000000     
  -23.160000000000000          0.0000000000000000     
  -23.100000000000001          0.0000000000000000     
  -23.039999999999999          0.0000000000000000     
  -22.980000000000000          0.0000000000000000     
  -22.920000000000002          0.0000000000000000     
  -22.859999999999999          0.0000000000000000     
  -22.800000000000001          0.0000000000000000     
  -22.739999999999998          0.0000000000000000     
  -22.680000000000000          0.0000000000000000     
  -22.620000000000001          0.0000000000000000     
  -22.559999999999999          0.0000000000000000     
  -22.500000000000000          0.0000000000000000     
  -22.440000000000001          0.0000000000000000     
  -22.379999999999999          0.0000000000000000     
  -22.320000000000000          0.0000000000000000     
  -22.260000000000002          0.0000000000000000     
  -22.199999999999999          0.0000000000000000     
  -22.140000000000001          0.0000000000000000     
  -22.079999999999998          0.0000000000000000     
  -22.020000000000000          0.0000000000000000     
  -21.960000000000001          0.0000000000000000     
  -21.899999999999999          0.0000000000000000     
  -21.840000000000000          0.0000000000000000     
  -21.780000000000001          0.0000000000000000     
  -21.719999999999999          0.0000000000000000     
  -21.660000000000000          0.0000000000000000     
  -21.600000000000001          0.0000000000000000     
  -21.539999999999999          0.0000000000000000     
  -21.480000000000000          0.0000000000000000     
  -21.420000000000002          0.0000000000000000     
  -21.359999999999999          0.0000000000000000     
  -21.300000000000001          0.0000000000000000     
  -21.240000000000002          0.0000000000000000     
  -21.180000000000000          0.0000000000000000     
  -21.120000000000001          0.0000000000000000     
  -21.059999999999999          0.0000000000000000     
  -21.000000000000000          0.0000000000000000     
  -20.940000000000001          0.0000000000000000     
  -20.879999999999999          0.0000000000000000     
  -20.820000000000000          0.0000000000000000     
  -20.760000000000002          0.0000000000000000     
  -20.699999999999999          0.0000000000000000     
  -20.640000000000001          0.0000000000000000     
  -20.579999999999998          0.0000000000000000     
  -20.520000000000000          0.0000000000000000     
  -20.460000000000001          0.0000000000000000     
  -20.399999999999999          0.0000000000000000     
  -20.340000000000000          0.0000000000000000     
  -20.280000000000001          0.0000000000000000     
  -20.219999999999999          0.0000000000000000     
  -20.160000000000000          0.0000000000000000     
  -20.100000000000001          0.0000000000000000     
  -20.039999999999999          0.0000000000000000     
  -19.980000000000000          0.0000000000000000     
  -19.920000000000002          0.0000000000000000     
  -19.859999999999999          0.0000000000000000     
  -19.800000000000001          0.0000000000000000     
  -19.740000000000002          0.0000000000000000     
  -19.680000000000000          0.0000000000000000     
  -19.620000000000001          0.0000000000000000     
  -19.560000000000002          0.0000000000000000     
  -19.500000000000000          0.0000000000000000     
  -19.440000000000001          0.0000000000000000     
  -19.379999999999999          0.0000000000000000     
  -19.320000000000000          0.0000000000000000     
  -19.259999999999998          0.0000000000000000     
  -19.199999999999999          0.0000000000000000     
  -19.140000000000001          0.0000000000000000     
  -19.079999999999998          0.0000000000000000     
  -19.020000000000000          0.0000000000000000     
  -18.960000000000001          0.0000000000000000     
  -18.899999999999999          0.0000000000000000     
  -18.840000000000000          0.0000000000000000     
  -18.780000000000001          0.0000000000000000     
  -18.719999999999999          0.0000000000000000     
  -18.660000000000000          0.0000000000000000     
  -18.600000000000001          0.0000000000000000     
  -18.539999999999999          0.0000000000000000     
  -18.480000000000000          0.0000000000000000     
  -18.420000000000002          0.0000000000000000     
  -18.359999999999999          0.0000000000000000     
  -18.300000000000001          0.0000000000000000     
  -18.240000000000002          0.0000000000000000     
  -18.180000000000000          0.0000000000000000     
  -18.120000000000001          0.0000000000000000     
  -18.060000000000002          0.0000000000000000     
  -18.000000000000000          0.0000000000000000     
  -17.940000000000001          0.0000000000000000     
  -17.879999999999999          0.0000000000000000     
  -17.820000000000000          0.0000000000000000     
  -17.759999999999998          0.0000000000000000     
  -17.699999999999999          0.0000000000000000     
  -17.640000000000001          0.0000000000000000     
  -17.579999999999998          0.0000000000000000     
  -17.520000000000000          0.0000000000000000     
  -17.460000000000001          0.0000000000000000     
  -17.399999999999999          0.0000000000000000     
  -17.340000000000000          0.0000000000000000     
  -17.280000000000001          0.0000000000000000     
  -17.219999999999999          0.0000000000000000     
  -17.160000000000000          0.0000000000000000     
  -17.100000000000001          0.0000000000000000     
  -17.039999999999999          0.0000000000000000     
  -16.980000000000000          0.0000000000000000     
  -16.920000000000002          0.0000000000000000     
  -16.859999999999999          0.0000000000000000     
  -16.800000000000001          0.0000000000000000     
  -16.740000000000002          0.0000000000000000     
  -16.680000000000000          0.0000000000000000     
  -16.620000000000001          0.0000000000000000     
  -16.560000000000002          0.0000000000000000     
  -16.500000000000000          0.0000000000000000     
  -16.440000000000001          0.0000000000000000     
  -16.379999999999999          0.0000000000000000     
  -16.320000000000000          0.0000000000000000     
  -16.260000000000002          0.0000000000000000     
  -16.199999999999999          0.0000000000000000     
  -16.140000000000001          0.0000000000000000     
  -16.079999999999998          0.0000000000000000     
  -16.020000000000000          0.0000000000000000     
  -15.960000000000001          0.0000000000000000     
  -15.900000000000000          0.0000000000000000     
  -15.840000000000000          0.0000000000000000     
  -15.780000000000001          0.0000000000000000     
  -15.720000000000001          0.0000000000000000     
  -15.660000000000000          0.0000000000000000     
  -15.600000000000000          0.0000000000000000     
  -15.540000000000001          0.0000000000000000     
  -15.480000000000000          0.0000000000000000     
  -15.420000000000000          0.0000000000000000     
  -15.359999999999999          0.0000000000000000     
  -15.300000000000001          0.0000000000000000     
  -15.240000000000000          0.0000000000000000     
  -15.180000000000000          0.0000000000000000     
  -15.120000000000001          0.0000000000000000     
  -15.060000000000000          0.0000000000000000     
  -15.000000000000000          0.0000000000000000     
  -14.940000000000000          0.0000000000000000     
  -14.880000000000001          0.0000000000000000     
  -14.820000000000000          0.0000000000000000     
  -14.760000000000000          0.0000000000000000     
  -14.700000000000001          0.0000000000000000     
  -14.640000000000001          0.0000000000000000     
  -14.580000000000000          0.0000000000000000     
  -14.520000000000000          0.0000000000000000     
  -14.460000000000001          0.0000000000000000     
  -14.400000000000000          0.0000000000000000     
  -14.340000000000000          0.0000000000000000     
  -14.280000000000001          0.0000000000000000     
  -14.220000000000001          0.0000000000000000     
  -14.160000000000000          0.0000000000000000     
  -14.100000000000000          0.0000000000000000     
  -14.040000000000001          0.0000000000000000     
  -13.980000000000000          0.0000000000000000     
  -13.920000000000000          0.0000000000000000     
  -13.860000000000001          0.0000000000000000     
  -13.800000000000001          0.0000000000000000     
  -13.740000000000000          0.0000000000000000     
  -13.680000000000000          0.0000000000000000     
  -13.620000000000001          0.0000000000000000     
  -13.560000000000000          0.0000000000000000     
  -13.500000000000000          0.0000000000000000     
  -13.440000000000001          0.0000000000000000     
  -13.380000000000001          0.0000000000000000     
  -13.320000000000000          0.0000000000000000     
  -13.260000000000000          0.0000000000000000     
  -13.200000000000001          0.0000000000000000     
  -13.140000000000001          0.0000000000000000     
  -13.080000000000000          0.0000000000000000     
  -13.020000000000000          0.0000000000000000     
  -12.960000000000001          0.0000000000000000     
  -12.900000000000000          0.0000000000000000     
  -12.840000000000000          0.0000000000000000     
  -12.780000000000001          0.0000000000000000     
  -12.720000000000001          0.0000000000000000     
  -12.660000000000000          0.0000000000000000     
  -12.600000000000000          0.0000000000000000     
  -12.540000000000001          0.0000000000000000     
  -12.480000000000000          0.0000000000000000     
  -12.420000000000000          2.7239862643093178E-040
  -12.360000000000001          7.2983956023526963E-040
  -12.300000000000001          1.4215389412144699E-039
  -12.240000000000000          2.3412337063042571E-039
  -12.180000000000000          3.4780531453532795E-039
  -12.120000000000001          4.8718001153153024E-039
  -12.060000000000000          6.5588050892666453E-039
  -12.000000000000000          8.5694425625643512E-039
  -11.940000000000001          1.0925150159298350E-038
  -11.880000000000001          1.3634797772043174E-038
  -11.820000000000000          1.6690786736471219E-038
  -11.760000000000000          2.0065129527468665E-038
  -11.700000000000001          2.3693707032554973E-038
  -11.640000000000001          2.7538467152872098E-038
  -11.580000000000000          3.0206443446914860E-038
  -11.520000000000000          3.1055672150186298E-038
  -11.460000000000001          2.9819799321152180E-038
  -11.400000000000000          2.6913409491911314E-038
  -11.340000000000000          2.1112748922783502E-038
  -11.280000000000001          1.1902328578299827E-038
  -11.220000000000001         -9.3911371811787713E-040
  -11.160000000000000         -1.7246950243976239E-038
  -11.100000000000000         -3.6000393021849053E-038
  -11.040000000000001         -5.6932869195873016E-038
  -10.980000000000000         -7.9603616009841613E-038
  -10.920000000000000         -1.0341109704602734E-037
  -10.860000000000001         -1.2757219126318510E-037
  -10.800000000000001         -1.5159243977530880E-037
  -10.740000000000000         -1.7054244801071848E-037
  -10.680000000000000         -1.8334904641745347E-037
  -10.620000000000001         -1.9100586751649544E-037
  -10.560000000000000         -1.9529822115313077E-037
  -10.500000000000000         -1.9350399419948355E-037
  -10.440000000000001         -1.8679186450916374E-037
  -10.380000000000001         -1.7311933010266056E-037
  -10.320000000000000         -1.5181671491071175E-037
  -10.260000000000000         -1.2169965567249793E-037
  -10.200000000000001         -8.2114442336488817E-038
  -10.140000000000001         -3.1633720009930685E-038
  -10.080000000000000          2.9703864900838168E-038
  -10.020000000000001          1.0351668362577990E-037
  -9.9600000000000009          1.9006157084212000E-037
  -9.9000000000000004          2.9428904940048924E-037
  -9.8399999999999999          4.1100439241206147E-037
  -9.7800000000000011          5.3062004298780401E-037
  -9.7200000000000006          6.5584432150099925E-037
  -9.6600000000000001          7.7804807075622400E-037
  -9.6000000000000014          8.9069089253482673E-037
  -9.5400000000000009          9.8553319456602405E-037
  -9.4800000000000004          1.0540730752184656E-036
  -9.4199999999999999          1.0874845187311918E-036
  -9.3600000000000012          1.0688649511030906E-036
  -9.3000000000000007          9.9029145564378689E-037
  -9.2400000000000002          8.3997935922628699E-037
  -9.1799999999999997          6.0863899157550514E-037
  -9.1200000000000010          2.8778877159339275E-037
  -9.0600000000000005         -1.1964580259346186E-037
  -9.0000000000000000         -6.2092366047129408E-037
  -8.9400000000000013         -1.2129632396465301E-036
  -8.8800000000000008         -1.8829560626600591E-036
  -8.8200000000000003         -2.6249291208426885E-036
  -8.7599999999999998         -3.4364000310282794E-036
  -8.7000000000000011         -4.2817697116641474E-036
  -8.6400000000000006         -5.1259097155657193E-036
  -8.5800000000000001         -5.9315262480087207E-036
  -8.5200000000000014         -6.6517775166733566E-036
  -8.4600000000000009         -7.2331312675307732E-036
  -8.4000000000000004         -7.6114788274003024E-036
  -8.3399999999999999         -7.7187873723686801E-036
  -8.2800000000000011         -7.4902996317581342E-036
  -8.2200000000000006         -6.8414749283851662E-036
  -8.1600000000000001         -5.6883688493980514E-036
  -8.1000000000000014         -3.9832918040942989E-036
  -8.0400000000000009         -1.6555212126023748E-036
  -7.9800000000000004          1.3326027206238933E-036
  -7.9200000000000017          5.0131706601845838E-036
  -7.8599999999999994          9.3897272055635235E-036
  -7.8000000000000007          1.4448067924070057E-035
  -7.7400000000000020          2.0129332191252157E-035
  -7.6799999999999997          2.6329658348375270E-035
  -7.6200000000000010          3.2924104177312643E-035
  -7.5600000000000023          3.9746041375795463E-035
  -7.5000000000000000          4.6566528420573736E-035
  -7.4400000000000013          5.3097322817635213E-035
  -7.3799999999999990          5.9009516502446150E-035
  -7.3200000000000003          6.3912037042266985E-035
  -7.2600000000000016          6.7367497662197896E-035
  -7.1999999999999993          6.8919262590150194E-035
  -7.1400000000000006          6.8048483183055953E-035
  -7.0800000000000018          6.4190527330667180E-035
  -7.0199999999999996          5.6781079410427223E-035
  -6.9600000000000009          4.5276675678737280E-035
  -6.9000000000000021          2.9138988086065006E-035
  -6.8399999999999999          7.8971866201925621E-036
  -6.7800000000000011         -1.8817832192093577E-035
  -6.7199999999999989         -5.1293627955178230E-035
  -6.6600000000000001         -8.9650755448686458E-035
  -6.6000000000000014         -1.3379070867829638E-034
  -6.5399999999999991         -1.8337471074836016E-034
  -6.4800000000000004         -2.3777409352275895E-034
  -6.4200000000000017         -2.9604002551697890E-034
  -6.3599999999999994         -3.5686600658833306E-034
  -6.3000000000000007         -4.1855523822149735E-034
  -6.2400000000000020         -4.7899165722994526E-034
  -6.1799999999999997         -5.3563276888387634E-034
  -6.1200000000000010         -5.8550268344580724E-034
  -6.0600000000000023         -6.2521107149735754E-034
  -6.0000000000000000         -6.5101792481257191E-034
  -5.9400000000000013         -6.5881728978738124E-034
  -5.8799999999999990         -6.4426107543004295E-034
  -5.8200000000000003         -6.0285127698677092E-034
  -5.7600000000000016         -5.3007902604942741E-034
  -5.6999999999999993         -4.2157959918265410E-034
  -5.6400000000000006         -2.7333155027014001E-034
  -5.5800000000000018         -8.1867356408172034E-035
  -5.5199999999999996          1.5548357612168616E-034
  -5.4600000000000009          4.4032598947856248E-034
  -5.4000000000000021          7.7291718576702401E-034
  -5.3399999999999999          1.1518710112959186E-033
  -5.2800000000000011          1.5738559357671451E-033
  -5.2200000000000024          2.0332983059712209E-033
  -5.1600000000000001          2.5221081013128592E-033
  -5.1000000000000014          3.0294373143767200E-033
  -5.0399999999999991          3.5414770290399236E-033
  -4.9800000000000004          4.0413069153512140E-033
  -4.9200000000000017          4.5088602807256123E-033
  -4.8599999999999994          4.9209309989615335E-033
  -4.8000000000000007          5.2513786976898504E-033
  -4.7400000000000020          5.4713708112008132E-033
  -4.6799999999999997          5.5498367817346090E-033
  -4.6200000000000010          5.4540755673411603E-033
  -4.5600000000000023          5.1505290578665886E-033
  -4.5000000000000000          4.6057645732498444E-033
  -4.4400000000000013          3.7876365959979161E-033
  -4.3799999999999990          2.6666341308151610E-033
  -4.3200000000000003          1.2174184289028263E-033
  -4.2600000000000016         -5.7946819024152633E-034
  -4.1999999999999993         -2.7357694283261172E-033
  -4.1400000000000006         -5.2535546205056180E-033
  -4.0800000000000018         -8.1232078180339081E-033
  -4.0199999999999996         -1.1321397104601618E-032
  -3.9600000000000009         -1.4809104339976180E-032
  -3.9000000000000021         -1.8529790272483841E-032
  -3.8399999999999999         -2.2407769704747709E-032
  -3.7800000000000011         -2.6346908288897198E-032
  -3.7200000000000024         -3.0229731723146925E-032
  -3.6600000000000001         -3.3917061214740878E-032
  -3.6000000000000014         -3.7248285553104903E-032
  -3.5399999999999991         -4.0042394284878557E-032
  -3.4800000000000004         -4.2099865633127263E-032
  -3.4200000000000017         -4.3205520337366382E-032
  -3.3599999999999994         -4.3132418093360719E-032
  -3.3000000000000007         -4.1646916976531114E-032
  -3.2400000000000020         -3.8514872956368705E-032
  -3.1799999999999997         -3.3509074211701338E-032
  -3.1200000000000010         -2.6417841524280016E-032
  -3.0600000000000023         -1.7054791407541710E-032
  -3.0000000000000000         -5.2696330994856676E-033
  -2.9400000000000013          9.0401512389586612E-033
  -2.8800000000000026          2.5916895861908271E-032
  -2.8200000000000003          4.5329953071872514E-032
  -2.7600000000000016          6.7162753690264228E-032
  -2.6999999999999993          9.1200160516470522E-032
  -2.6400000000000006          1.1711653551470841E-031
  -2.5800000000000018          1.4446504619735913E-031
  -2.5199999999999996          1.7266874618756347E-031
  -2.4600000000000009          2.0101402280825998E-031
  -2.4000000000000021          2.2864711860895905E-031
  -2.3399999999999999          2.5457430605887052E-031
  -2.2800000000000011          2.7766630441180553E-031
  -2.2200000000000024          2.9666793454520382E-031
  -2.1600000000000001          3.1021305853551209E-031
  -2.1000000000000014          3.1684590767697017E-031
  -2.0399999999999991          3.1504886255594227E-031
  -1.9800000000000004          3.0327724724900023E-031
  -1.9200000000000017          2.8000120538060161E-031
  -1.8599999999999994          2.4375474162131645E-031
  -1.8000000000000007          1.9319157439580324E-031
  -1.7400000000000020          1.2714757867774731E-031
  -1.6799999999999997          4.4708894920734861E-032
  -1.6200000000000010         -5.4715176797217102E-032
  -1.5600000000000023         -1.7131596517361715E-031
  -1.5000000000000000         -3.0480753734099705E-031
  -1.4400000000000013         -4.5434899443784446E-031
  -1.3800000000000026         -6.1846939590269717E-031
  -1.3200000000000003         -7.9499826640740952E-031
  -1.2600000000000016         -9.8100396059872298E-031
  -1.1999999999999993         -1.1727439207774235E-030
  -1.1400000000000006         -1.3656295516997747E-030
  -1.0800000000000018         -1.5542100243536679E-030
  -1.0199999999999996         -1.7321780013414958E-030
 -0.96000000000000085         -1.8924014695013306E-030
 -0.90000000000000213         -2.0269849328927322E-030
 -0.83999999999999986         -2.1273630194465335E-030
 -0.78000000000000114         -2.1844302411184729E-030
 -0.72000000000000242         -2.1887080195671411E-030
 -0.66000000000000014         -2.1305513153070247E-030
 -0.60000000000000142         -2.0003961555308222E-030
 -0.53999999999999915         -1.7890468497993376E-030
 -0.48000000000000043         -1.4880017679303029E-030
 -0.42000000000000171         -1.0898156970403334E-030
 -0.35999999999999943         -5.8849386676496983E-031
 -0.30000000000000071          2.0088370929579057E-032
 -0.24000000000000199          7.3774639075521143E-031
 -0.17999999999999972          1.5635382153938920E-030
 -0.12000000000000099          2.4933173263053797E-030
  -6.0000000000002274E-002     3.5193006890167960E-030
   0.0000000000000000          4.6296636120329668E-030
   5.9999999999998721E-002     5.8081801924388229E-030
  0.11999999999999744          7.0339254557502811E-030
  0.17999999999999972          8.2810563666377850E-030
  0.23999999999999844          9.5186941016455298E-030
  0.30000000000000071          1.0710920144027740E-029
  0.35999999999999943          1.1816917297770553E-029
  0.41999999999999815          1.2791264081644447E-029
  0.48000000000000043          1.3584400925336591E-029
  0.53999999999999915          1.4143290459721370E-029
  0.59999999999999787          1.4412278501584966E-029
  0.66000000000000014          1.4334168002284285E-029
  0.71999999999999886          1.3851509617606039E-029
  0.77999999999999758          1.2908113520102778E-029
  0.83999999999999986          1.1450769149274337E-029
  0.89999999999999858          9.4311693929192823E-030
  0.96000000000000085          6.8080130899304225E-030
   1.0199999999999996          3.5492666525414014E-030
   1.0799999999999983         -3.6545974776005231E-031
   1.1400000000000006         -4.9424583844115396E-030
   1.1999999999999993         -1.0171446888306329E-029
   1.2599999999999980         -1.6023133519536850E-029
   1.3200000000000003         -2.2446889183204523E-029
   1.3799999999999990         -2.9368603804890993E-029
   1.4399999999999977         -3.6688823664052853E-029
   1.5000000000000000         -4.4281247159405007E-029
   1.5599999999999987         -5.1991681492970855E-029
   1.6199999999999974         -5.9637555066759531E-029
   1.6799999999999997         -6.7008107937027410E-029
   1.7399999999999984         -7.3865313885779487E-029
   1.8000000000000007         -7.9945667186734361E-029
   1.8599999999999994         -8.4962905333778107E-029
   1.9199999999999982         -8.8611748620084747E-029
   1.9800000000000004         -9.0572702598853622E-029
   2.0399999999999991         -9.0517989733863862E-029
   2.0999999999999979         -8.8118613184885104E-029
   2.1600000000000001         -8.3052564656126346E-029
   2.2199999999999989         -7.5014107108477276E-029
   2.2799999999999976         -6.3724108437436117E-029
   2.3399999999999999         -4.8941343447639343E-029
   2.3999999999999986         -3.0474517125627216E-029
   2.4599999999999973         -8.1949589540540254E-030
   2.5199999999999996          1.7950334715265229E-029
   2.5799999999999983          4.7925503317886217E-029
   2.6400000000000006          8.1592839103245937E-029
   2.6999999999999993          1.1870032850560326E-028
   2.7599999999999980          1.5887014162671195E-028
   2.8200000000000003          2.0158847754005041E-028
   2.8799999999999990          2.4619715493174288E-028
   2.9399999999999977          2.9188753047331256E-028
   3.0000000000000000          3.3769723276857728E-028
   3.0599999999999987          3.8251006221070753E-028
   3.1199999999999974          4.2505978434409461E-028
   3.1799999999999997          4.6393803215548097E-028
   3.2399999999999984          4.9760689258576409E-028
   3.3000000000000007          5.2441652737151382E-028
   3.3599999999999994          5.4262834894241532E-028
   3.4199999999999982          5.5044347242176252E-028
   3.4800000000000004          5.4603722308539037E-028
   3.5399999999999991          5.2759922339479382E-028
   3.5999999999999979          4.9337929283392064E-028
   3.6600000000000001          4.4173860601748521E-028
   3.7199999999999989          3.7120593312621909E-028
   3.7799999999999976          2.8053816998935817E-028
   3.8399999999999999          1.6878450595781441E-028
   3.8999999999999986          3.5353170878115937E-029
   3.9599999999999973         -1.1992068817531085E-028
   4.0199999999999996         -2.9670664916942448E-028
   4.0799999999999983         -4.9411282633547456E-028
   4.1400000000000006         -7.1062288423302118E-028
   4.1999999999999993         -9.4403804221103928E-028
   4.2599999999999980         -1.1914276243217598E-027
   4.3200000000000003         -1.4490883149002078E-027
   4.3799999999999990         -1.7125160819311632E-027
   4.4399999999999977         -1.9763924046322119E-027
   4.5000000000000000         -2.2345878783306149E-027
   4.5599999999999987         -2.4801843415194444E-027
   4.6199999999999974         -2.7055188815517291E-027
   4.6799999999999997         -2.9022518784032353E-027
   4.7399999999999984         -3.0614595154371188E-027
   4.7999999999999972         -3.1737541870381986E-027
   4.8599999999999994         -3.2294322549373626E-027
   4.9199999999999982         -3.2186503501932749E-027
   4.9800000000000004         -3.1316310816776352E-027
   5.0399999999999991         -2.9588957034963957E-027
   5.0999999999999979         -2.6915243674327281E-027
   5.1600000000000001         -2.3214410848591277E-027
   5.2199999999999989         -1.8417199992967810E-027
   5.2799999999999976         -1.2469099563566351E-027
   5.3399999999999999         -5.3337164887156094E-028
   5.3999999999999986          3.0037663619654972E-028
   5.4599999999999973          1.2533147367231498E-027
   5.5199999999999996          2.3215789915365922E-027
   5.5799999999999983          3.4981418431407679E-027
   5.6400000000000006          4.7725108475725308E-027
   5.6999999999999993          6.1304654137579523E-027
   5.7599999999999980          7.5538371908454723E-027
   5.8200000000000003          9.0203481306040081E-027
   5.8799999999999990          1.0503519532686369E-026
   5.9399999999999977          1.1972652420194362E-026
   6.0000000000000000          1.3392908752894288E-026
   6.0599999999999987          1.4725488447118779E-026
   6.1199999999999974          1.5927921167629833E-026
   6.1799999999999997          1.6954477148385322E-026
   6.2399999999999984          1.7756709855149075E-026
   6.2999999999999972          1.8284132382426437E-026
   6.3599999999999994          1.8485033290756239E-026
   6.4199999999999982          1.8307432632311345E-026
   6.4800000000000004          1.7700176565084823E-026
   6.5399999999999991          1.6614170914305534E-026
   6.5999999999999979          1.5003736199977401E-026
   6.6600000000000001          1.2828076429047923E-026
   6.7199999999999989          1.0052854612347647E-026
   6.7799999999999976          6.6518406015546844E-027
   6.8399999999999999          2.6086122804525762E-027
   6.8999999999999986         -2.0817125635703892E-027
   6.9599999999999973         -7.4107599521054003E-027
   7.0199999999999996         -1.3355224597945400E-026
   7.0799999999999983         -1.9875278748483909E-026
   7.1400000000000006         -2.6913125050260861E-026
   7.1999999999999993         -3.4391726842035875E-026
   7.2599999999999980         -4.2213768491742068E-026
   7.3200000000000003         -5.0260908555995684E-026
   7.3799999999999990         -5.8393370746423934E-026
   7.4399999999999977         -6.6449947947575180E-026
   7.5000000000000000         -7.4248414746476915E-026
   7.5599999999999987         -8.1586490712108439E-026
   7.6199999999999974         -8.8243337764646615E-026
   7.6799999999999997         -9.3981623780547325E-026
   7.7399999999999984         -9.8550246441900096E-026
   7.7999999999999972         -1.0168770221930669E-025
   7.8599999999999994         -1.0312611885932499E-025
   7.9199999999999982         -1.0259598566468185E-025
   7.9800000000000004         -9.9831553273275765E-026
   8.0399999999999991         -9.4576838791413603E-026
   8.1000000000000014         -8.6592327083827545E-026
   8.1599999999999966         -7.5662160688632464E-026
   8.2199999999999989         -6.1601829985502443E-026
   8.2800000000000011         -4.4266263611487648E-026
   8.3399999999999963         -2.3558170589867548E-026
   8.3999999999999986          5.6343260319755193E-028
   8.4600000000000009          2.8074819924096829E-026
   8.5199999999999960          5.8879178988039823E-026
   8.5799999999999983          9.2798785238534209E-026
   8.6400000000000006          1.2956768295947583E-025