  -24.000000000000000          0.0000000000000000     
  -23.940000000000001          0.0000000000000000     
  -23.879999999999999          0.0000000000000000     
  -23.820000000000000          0.0000000000000000     
  -23.760000000000002          0.0000000000000000     
  -23.699999999999999          0.0000000000000000     
  -23.640000000000001          0.0000000000000000     
  -23.579999999999998          0.0000000000000000     
  -23.520000000000000          0.0000000000000000     
  -23.460000000000001          0.0000000000000000     
  -23.399999999999999          0.0000000000000000     
  -23.340000000000000          0.0000000000000000     
  -23.280000000000001          0.0000000000000000     
  -23.219999999999999          0.0000000000000000     
  -23.160000000000000          0.0000000000000000     
  -23.100000000000001          0.0000000000000000     
  -23.039999999999999          0.0000000000000000     
  -22.980000000000000          0.0000000000000000     
  -22.920000000000002          0.0000000000000000     
  -22.859999999999999          0.0000000000000000     
  -22.800000000000001          0.0000000000000000     
  -22.739999999999998          0.0000000000000000     
  -22.680000000000000          0.0000000000000000     
  -22.620000000000001          0.0000000000000000     
  -22.559999999999999          0.0000000000000000     
  -22.500000000000000          0.0000000000000000     
  -22.440000000000001          0.0000000000000000     
  -22.379999999999999          0.0000000000000000     
  -22.320000000000000          0.0000000000000000     
  -22.260000000000002          0.0000000000000000     
  -22.199999999999999          0.0000000000000000     
  -22.140000000000001          0.0000000000000000     
  -22.079999999999998          0.0000000000000000     
  -22.020000000000000          0.0000000000000000     
  -21.960000000000001          0.0000000000000000     
  -21.899999999999999          0.0000000000000000     
  -21.840000000000000          0.0000000000000000     
  -21.780000000000001          0.0000000000000000     
  -21.719999999999999          0.0000000000000000     
  -21.660000000000000          0.0000000000000000     
  -21.600000000000001          0.0000000000000000     
  -21.539999999999999          0.0000000000000000     
  -21.480000000000000          0.0000000000000000     
  -21.420000000000002          0.0000000000000000     
  -21.359999999999999          0.0000000000000000     
  -21.300000000000001          0.0000000000000000     
  -21.240000000000002          0.0000000000000000     
  -21.180000000000000          0.0000000000000000     
  -21.120000000000001          0.0000000000000000     
  -21.059999999999999          0.0000000000000000     
  -21.000000000000000          0.0000000000000000     
  -20.940000000000001          0.0000000000000000     
  -20.879999999999999          0.0000000000000000     
  -20.820000000000000          0.0000000000000000     
  -20.760000000000002          0.0000000000000000     
  -20.699999999999999          0.0000000000000000     
  -20.640000000000001          0.0000000000000000     
  -20.579999999999998          0.0000000000000000     
  -20.520000000000000          0.0000000000000000     
  -20.460000000000001          0.0000000000000000     
  -20.399999999999999          0.0000000000000000     
  -20.340000000000000          0.0000000000000000     
  -20.280000000000001          0.0000000000000000     
  -20.219999999999999          0.0000000000000000     
  -20.160000000000000          0.0000000000000000     
  -20.100000000000001          0.0000000000000000     
  -20.039999999999999          0.0000000000000000     
  -19.980000000000000          0.0000000000000000     
  -19.920000000000002          0.0000000000000000     
  -19.859999999999999          0.0000000000000000     
  -19.800000000000001          0.0000000000000000     
  -19.740000000000002          0.0000000000000000     
  -19.680000000000000          0.0000000000000000     
  -19.620000000000001          0.0000000000000000     
  -19.560000000000002          0.0000000000000000     
  -19.500000000000000          0.0000000000000000     
  -19.440000000000001          0.0000000000000000     
  -19.379999999999999          0.0000000000000000     
  -19.320000000000000          0.0000000000000000     
  -19.259999999999998          0.0000000000000000     
  -19.199999999999999          0.0000000000000000     
  -19.140000000000001          0.0000000000000000     
  -19.079999999999998          0.0000000000000000     
  -19.020000000000000          0.0000000000000000     
  -18.960000000000001          0.0000000000000000     
  -18.899999999999999          0.0000000000000000     
  -18.840000000000000          0.0000000000000000     
  -18.780000000000001          0.0000000000000000     
  -18.719999999999999          0.0000000000000000     
  -18.660000000000000          0.0000000000000000     
  -18.600000000000001          0.0000000000000000     
  -18.539999999999999          0.0000000000000000     
  -18.480000000000000          0.0000000000000000     
  -18.420000000000002          0.0000000000000000     
  -18.359999999999999          0.0000000000000000     
  -18.300000000000001          0.0000000000000000     
  -18.240000000000002          0.0000000000000000     
  -18.180000000000000          0.0000000000000000     
  -18.120000000000001          0.0000000000000000     
  -18.060000000000002          0.0000000000000000     
  -18.000000000000000          0.0000000000000000     
  -17.940000000000001          0.0000000000000000     
  -17.879999999999999          0.0000000000000000     
  -17.820000000000000          0.0000000000000000     
  -17.759999999999998          0.0000000000000000     
  -17.699999999999999          0.0000000000000000     
  -17.640000000000001          0.0000000000000000     
  -17.579999999999998          0.0000000000000000     
  -17.520000000000000          0.0000000000000000     
  -17.460000000000001          0.0000000000000000     
  -17.399999999999999          0.0000000000000000     
  -17.340000000000000          0.0000000000000000     
  -17.280000000000001          0.0000000000000000     
  -17.219999999999999          0.0000000000000000     
  -17.160000000000000          0.0000000000000000     
  -17.100000000000001          0.0000000000000000     
  -17.039999999999999          0.0000000000000000     
  -16.980000000000000          0.0000000000000000     
  -16.920000000000002          0.0000000000000000     
  -16.859999999999999          0.0000000000000000     
  -16.800000000000001          0.0000000000000000     
  -16.740000000000002          0.0000000000000000     
  -16.680000000000000          0.0000000000000000     
  -16.620000000000001          0.0000000000000000     
  -16.560000000000002          0.0000000000000000     
  -16.500000000000000          0.0000000000000000     
  -16.440000000000001          0.0000000000000000     
  -16.379999999999999          0.0000000000000000     
  -16.320000000000000          0.0000000000000000     
  -16.260000000000002          0.0000000000000000     
  -16.199999999999999          0.0000000000000000     
  -16.140000000000001          0.0000000000000000     
  -16.079999999999998          0.0000000000000000     
  -16.020000000000000          0.0000000000000000     
  -15.960000000000001          0.0000000000000000     
  -15.900000000000000          0.0000000000000000     
  -15.840000000000000          0.0000000000000000     
  -15.780000000000001          0.0000000000000000     
  -15.720000000000001          0.0000000000000000     
  -15.660000000000000          0.0000000000000000     
  -15.600000000000000          0.0000000000000000     
  -15.540000000000001          0.0000000000000000     
  -15.480000000000000          0.0000000000000000     
  -15.420000000000000          0.0000000000000000     
  -15.359999999999999          0.0000000000000000     
  -15.300000000000001          0.0000000000000000     
  -15.240000000000000          0.0000000000000000     
  -15.180000000000000          0.0000000000000000     
  -15.120000000000001          0.0000000000000000     
  -15.060000000000000          0.0000000000000000     
  -15.000000000000000          0.0000000000000000     
  -14.940000000000000          0.0000000000000000     
  -14.880000000000001          0.0000000000000000     
  -14.820000000000000          0.0000000000000000     
  -14.760000000000000          0.0000000000000000     
  -14.700000000000001          0.0000000000000000     
  -14.640000000000001          0.0000000000000000     
  -14.580000000000000          0.0000000000000000     
  -14.520000000000000          0.0000000000000000     
  -14.460000000000001          0.0000000000000000     
  -14.400000000000000          0.0000000000000000     
  -14.340000000000000          0.0000000000000000     
  -14.280000000000001          0.0000000000000000     
  -14.220000000000001          0.0000000000000000     
  -14.160000000000000          0.0000000000000000     
  -14.100000000000000          0.0000000000000000     
  -14.040000000000001          0.0000000000000000     
  -13.980000000000000          0.0000000000000000     
  -13.920000000000000          0.0000000000000000     
  -13.860000000000001          0.0000000000000000     
  -13.800000000000001          0.0000000000000000     
  -13.740000000000000          0.0000000000000000     
  -13.680000000000000          0.0000000000000000     
  -13.620000000000001          0.0000000000000000     
  -13.560000000000000          0.0000000000000000     
  -13.500000000000000          0.0000000000000000     
  -13.440000000000001          0.0000000000000000     
  -13.380000000000001          0.0000000000000000     
  -13.320000000000000          0.0000000000000000     
  -13.260000000000000          0.0000000000000000     
  -13.200000000000001          0.0000000000000000     
  -13.140000000000001          0.0000000000000000     
  -13.080000000000000          0.0000000000000000     
  -13.020000000000000          0.0000000000000000     
  -12.960000000000001          0.0000000000000000     
  -12.900000000000000          0.0000000000000000     
  -12.840000000000000          0.0000000000000000     
  -12.780000000000001          0.0000000000000000     
  -12.720000000000001          0.0000000000000000     
  -12.660000000000000          0.0000000000000000     
  -12.600000000000000          0.0000000000000000     
  -12.540000000000001          0.0000000000000000     
  -12.480000000000000          0.0000000000000000     
  -12.420000000000000          0.0000000000000000     
  -12.360000000000001          0.0000000000000000     
  -12.300000000000001          0.0000000000000000     
  -12.240000000000000          0.0000000000000000     
  -12.180000000000000          0.0000000000000000     
  -12.120000000000001          0.0000000000000000     
  -12.060000000000000          0.0000000000000000     
  -12.000000000000000          0.0000000000000000     
  -11.940000000000001          0.0000000000000000     
  -11.880000000000001          0.0000000000000000     
  -11.820000000000000          0.0000000000000000     
  -11.760000000000000          0.0000000000000000     
  -11.700000000000001          0.0000000000000000     
  -11.640000000000001          0.0000000000000000     
  -11.580000000000000          0.0000000000000000     
  -11.520000000000000          0.0000000000000000     
  -11.460000000000001          0.0000000000000000     
  -11.400000000000000          0.0000000000000000     
  -11.340000000000000          0.0000000000000000     
  -11.280000000000001          0.0000000000000000     
  -11.220000000000001          0.0000000000000000     
  -11.160000000000000          0.0000000000000000     
  -11.100000000000000          0.0000000000000000     
  -11.040000000000001          0.0000000000000000     
  -10.980000000000000          0.0000000000000000     
  -10.920000000000000          0.0000000000000000     
  -10.860000000000001          0.0000000000000000     
  -10.800000000000001          0.0000000000000000     
  -10.740000000000000          0.0000000000000000     
  -10.680000000000000          0.0000000000000000     
  -10.620000000000001          0.0000000000000000     
  -10.560000000000000          0.0000000000000000     
  -10.500000000000000          0.0000000000000000     
  -10.440000000000001          0.0000000000000000     
  -10.380000000000001          0.0000000000000000     
  -10.320000000000000          0.0000000000000000     
  -10.260000000000000          0.0000000000000000     
  -10.200000000000001          0.0000000000000000     
  -10.140000000000001          0.0000000000000000     
  -10.080000000000000          0.0000000000000000     
  -10.020000000000001          0.0000000000000000     
  -9.9600000000000009          0.0000000000000000     
  -9.9000000000000004          0.0000000000000000     
  -9.8399999999999999          0.0000000000000000     
  -9.7800000000000011          0.0000000000000000     
  -9.7200000000000006          0.0000000000000000     
  -9.6600000000000001          0.0000000000000000     
  -9.6000000000000014          0.0000000000000000     
  -9.5400000000000009          0.0000000000000000     
  -9.4800000000000004          0.0000000000000000     
  -9.4199999999999999          0.0000000000000000     
  -9.3600000000000012          0.0000000000000000     
  -9.3000000000000007          0.0000000000000000     
  -9.2400000000000002          0.0000000000000000     
  -9.1799999999999997          0.0000000000000000     
  -9.1200000000000010          0.0000000000000000     
  -9.0600000000000005          0.0000000000000000     
  -9.0000000000000000          0.0000000000000000     
  -8.9400000000000013          0.0000000000000000     
  -8.8800000000000008          0.0000000000000000     
  -8.8200000000000003          0.0000000000000000     
  -8.7599999999999998          0.0000000000000000     
  -8.7000000000000011          0.0000000000000000     
  -8.6400000000000006          0.0000000000000000     
  -8.5800000000000001          0.0000000000000000     
  -8.5200000000000014          0.0000000000000000     
  -8.4600000000000009          0.0000000000000000     
  -8.4000000000000004          0.0000000000000000     
  -8.3399999999999999          0.0000000000000000     
  -8.2800000000000011          0.0000000000000000     
  -8.2200000000000006          0.0000000000000000     
  -8.1600000000000001          0.0000000000000000     
  -8.1000000000000014          0.0000000000000000     
  -8.0400000000000009          0.0000000000000000     
  -7.9800000000000004          0.0000000000000000     
  -7.9200000000000017         -2.7296229294698306E-041
  -7.8599999999999994         -6.9389626208727691E-041
  -7.8000000000000007         -1.2641706969188887E-040
  -7.7400000000000020         -1.9774880720103597E-040
  -7.6799999999999997         -2.7597112858329863E-040
  -7.6200000000000010         -3.5419344996556129E-040
  -7.5600000000000023         -4.3241577134782396E-040
  -7.5000000000000000         -5.1063809273008662E-040
  -7.4400000000000013         -5.8886041411234928E-040
  -7.3799999999999990         -6.5924724937162111E-040
  -7.3200000000000003         -7.0923922869163173E-040
  -7.2600000000000016         -7.2881510599438555E-040
  -7.1999999999999993         -6.8329692029798978E-040
  -7.1400000000000006         -5.9813515531793158E-040
  -7.0800000000000018         -4.9910457990017961E-040
  -7.0199999999999996         -3.7075996269186081E-040
  -6.9600000000000009         -2.1023399988666376E-040
  -6.9000000000000021          4.8047411585726561E-041
  -6.8399999999999999          4.1860433746755254E-040
  -6.7800000000000011          8.0668427466571359E-040
  -6.7199999999999989          1.2285591834873857E-039
  -6.6600000000000001          1.6807208819100240E-039
  -6.6000000000000014          2.1574978406738219E-039
  -6.5399999999999991          2.6507671171031025E-039
  -6.4800000000000004          3.1499282487726915E-039
  -6.4200000000000017          3.6490893804422805E-039
  -6.3599999999999994          3.9185057200063013E-039
  -6.3000000000000007          3.8622927592958761E-039
  -6.2400000000000020          3.4060773203750639E-039
  -6.1799999999999997          2.7000240590062554E-039
  -6.1200000000000010          1.7184256321591085E-039
  -6.0600000000000023          4.4043785507185343E-040
  -6.0000000000000000         -1.1481196853652442E-039
  -5.9400000000000013         -3.0528054124510782E-039
  -5.8799999999999990         -5.2684677918617658E-039
  -5.8200000000000003         -7.7697684925336383E-039
  -5.7600000000000016         -1.0522994543757020E-038
  -5.6999999999999993         -1.3493421055137633E-038
  -5.6400000000000006         -1.6612377682050875E-038
  -5.5800000000000018         -1.9781556463078366E-038
  -5.5199999999999996         -2.2888723916365807E-038
  -5.4600000000000009         -2.5638281580200411E-038
  -5.4000000000000021         -2.7798316289232442E-038
  -5.3399999999999999         -2.9035144838322492E-038
  -5.2800000000000011         -2.8981302211649825E-038
  -5.2200000000000024         -2.7221572344782231E-038
  -5.1600000000000001         -2.3833039837478640E-038
  -5.1000000000000014         -1.9854675765741847E-038
  -5.0399999999999991         -1.4542787932824722E-038
  -4.9800000000000004         -7.7823496698667365E-039
  -4.9200000000000017          2.4118165290817844E-040
  -4.8599999999999994          1.0056080959056661E-038
  -4.8000000000000007          2.1671192529781527E-038
  -4.7400000000000020          3.5108839034077011E-038
  -4.6799999999999997          5.0084030419251650E-038
  -4.6200000000000010          6.6775402002189440E-038
  -4.5600000000000023          8.4439454694419640E-038
  -4.5000000000000000          1.0255719789414931E-037
  -4.4400000000000013          1.2070371746530680E-037
  -4.3799999999999990          1.3792028302493219E-037
  -4.3200000000000003          1.5555537523300540E-037
  -4.2600000000000016          1.7112654869203008E-037
  -4.1999999999999993          1.8343956936341693E-037
  -4.1400000000000006          1.9020146268516653E-037
  -4.0800000000000018          1.9186882169779452E-037
  -4.0199999999999996          1.8744449881596017E-037
  -3.9600000000000009          1.7596350312835715E-037
  -3.9000000000000021          1.5653011650065441E-037
  -3.8399999999999999          1.2845564064058203E-037
  -3.7800000000000011          9.0955880537771711E-038
  -3.7200000000000024          4.3590196236201222E-038
  -3.6600000000000001         -1.3383089911933078E-038
  -3.6000000000000014         -7.9642790315563262E-038
  -3.5399999999999991         -1.5597728079388066E-037
  -3.4800000000000004         -2.4256036675377490E-037
  -3.4200000000000017         -3.3825396829621568E-037
  -3.3599999999999994         -4.4535344003449281E-037
  -3.3000000000000007         -5.5863380587861025E-037
  -3.2400000000000020         -6.7153324141705418E-037
  -3.1799999999999997         -7.7828022771129990E-037
  -3.1200000000000010         -8.7737460658179294E-037
  -3.0600000000000023         -9.6109812033479517E-037
  -3.0000000000000000         -1.0234865980358351E-036
  -2.9400000000000013         -1.0580040189709154E-036
  -2.8800000000000026         -1.0575180058358024E-036
  -2.8200000000000003         -1.0146879011441011E-036
  -2.7600000000000016         -9.2139500303506033E-037
  -2.6999999999999993         -7.7429378371261759E-037
  -2.6400000000000006         -5.6593619526621097E-037
  -2.5800000000000018         -2.9208000325756353E-037
  -2.5199999999999996          5.0889666841675008E-038
  -2.4600000000000009          4.5862642200429137E-037
  -2.4000000000000021          9.3942582432475944E-037
  -2.3399999999999999          1.4853026068953431E-036
  -2.2800000000000011          2.0872450754587998E-036
  -2.2200000000000024          2.7450906147988788E-036
  -2.1600000000000001          3.4389042357865222E-036
  -2.1000000000000014          4.1536564432709097E-036
  -2.0399999999999991          4.8607444151758192E-036
  -1.9800000000000004          5.5346110352899471E-036
  -1.9200000000000017          6.1425922401614865E-036
  -1.8599999999999994          6.6494733623407300E-036
  -1.8000000000000007          7.0153504412780320E-036
  -1.7400000000000020          7.1970242209596746E-036
  -1.6799999999999997          7.1523529597960676E-036
  -1.6200000000000010          6.8268037543277112E-036
  -1.5600000000000023          6.1621728913715637E-036
  -1.5000000000000000          5.1334105541886490E-036
  -1.4400000000000013          3.6914497533937094E-036
  -1.3800000000000026          1.8072804478290207E-036
  -1.3200000000000003         -5.4476070559235724E-037
  -1.2600000000000016         -3.3891802683755278E-036
  -1.1999999999999993         -6.7104333279021176E-036
  -1.1400000000000006         -1.0500570308901449E-035
  -1.0800000000000018         -1.4725905815516247E-035
  -1.0199999999999996         -1.9326930745864854E-035
 -0.96000000000000085         -2.4219964349727407E-035
 -0.90000000000000213         -2.9296651556966777E-035
 -0.83999999999999986         -3.4419511152164814E-035
 -0.78000000000000114         -3.9419487526302828E-035
 -0.72000000000000242         -4.4101723203230404E-035
 -0.66000000000000014         -4.8242377272181162E-035
 -0.60000000000000142         -5.1586133803794277E-035
 -0.53999999999999915         -5.3828866508609395E-035
 -0.48000000000000043         -5.4698316292707945E-035
 -0.42000000000000171         -5.3909039823251172E-035
 -0.35999999999999943         -5.1155673261162748E-035
 -0.30000000000000071         -4.6132546043439969E-035
 -0.24000000000000199         -3.8499866473937321E-035
 -0.17999999999999972         -2.7979906795326648E-035
 -0.12000000000000099         -1.4308224009294862E-035
  -6.0000000000002274E-002     2.6936264598655131E-036
   0.0000000000000000          2.3127953828696132E-035
   5.9999999999998721E-002     4.7003335439879159E-035
  0.11999999999999744          7.4215828017257380E-035
  0.17999999999999972          1.0453262336464954E-034
  0.23999999999999844          1.3756341398702800E-034
  0.30000000000000071          1.7275502331788593E-034
  0.35999999999999943          2.0938374389839252E-034
  0.41999999999999815          2.4652228774282904E-034
  0.48000000000000043          2.8303216074552032E-034
  0.53999999999999915          3.1759219394339225E-034
  0.59999999999999787          3.4873519429191127E-034
  0.66000000000000014          3.7477989752064925E-034
  0.71999999999999886          3.9385285125433643E-034
  0.77999999999999758          4.0395938416169572E-034
  0.83999999999999986          4.0301176359193909E-034
  0.89999999999999858          3.8887355905774063E-034
  0.96000000000000085          3.5941982647479532E-034
   1.0199999999999996          3.1260698018511717E-034
   1.0799999999999983          2.4655348436709110E-034
   1.1400000000000006          1.5963137337103957E-034
   1.1999999999999993          5.0559481500128681E-035
   1.2599999999999980         -8.1474344891714613E-035
   1.3200000000000003         -2.3671924452940510E-034
   1.3799999999999990         -4.1473349430084318E-034
   1.4399999999999977         -6.1427584252267413E-034
   1.5000000000000000         -8.3319378608861678E-034
   1.5599999999999987         -1.0683234403699439E-033
   1.6199999999999974         -1.3153995557574326E-033
   1.6799999999999997         -1.5689776839815857E-033
   1.7399999999999984         -1.8223864886646374E-033
   1.8000000000000007         -2.0677120969821261E-033
   1.8599999999999994         -2.2958172917870929E-033
   1.9199999999999982         -2.4964015506936277E-033
   1.9800000000000004         -2.6580744775102803E-033
   2.0399999999999991         -2.7685460468429123E-033
   2.0999999999999979         -2.8148274344807818E-033
   2.1600000000000001         -2.7835008025317726E-033
   2.2199999999999989         -2.6610531236252582E-033
   2.2799999999999976         -2.4342769312480395E-033
   2.3399999999999999         -2.0907186607737071E-033
   2.3999999999999986         -1.6191997665890884E-033
   2.4599999999999973         -1.0103928854977024E-033
   2.5199999999999996         -2.5744217510879382E-034
   2.5799999999999983          6.4338779116250323E-034
   2.6400000000000006          1.6920384988621662E-033
   2.6999999999999993          2.8839796959975623E-033
   2.7599999999999980          4.2095319050478160E-033
   2.8200000000000003          5.6532403996809791E-033
   2.8799999999999990          7.1933083668537535E-033
   2.9399999999999977          8.8011188688061196E-033
   3.0000000000000000          1.0440873595948434E-032
   3.0599999999999987          1.2069391614839136E-032
   3.1199999999999974          1.3636081093809556E-032
   3.1799999999999997          1.5083136028914358E-032
   3.2399999999999984          1.6345978772050106E-032
   3.3000000000000007          1.7353979127534849E-032
   3.3599999999999994          1.8031478153558882E-032
   3.4199999999999982          1.8299143700859513E-032
   3.4800000000000004          1.8075661529553086E-032
   3.5399999999999991          1.7279778636652332E-032
   3.5999999999999979          1.5832699674179913E-032
   3.6600000000000001          1.3660847579600368E-032
   3.7199999999999989          1.0698890150744342E-032
   3.7799999999999976          6.8931090587372076E-033
   3.8399999999999999          2.2049719570007511E-033
   3.8999999999999986         -3.3851134866313044E-033
   3.9599999999999973         -9.8739601117591070E-033
   4.0199999999999996         -1.7231761683709791E-032
   4.0799999999999983         -2.5398373633200514E-032
   4.1400000000000006         -3.4279838603051974E-032
   4.1999999999999993         -4.3745295863562511E-032
   4.2599999999999980         -5.3624422217331049E-032
   4.3200000000000003         -6.3705597011315736E-032
   4.3799999999999990         -7.3734905169255252E-032
   4.4399999999999977         -8.3416231844333359E-032
   4.5000000000000000         -9.2412532734396870E-032
   4.5599999999999987         -1.0034852128531768E-031
   4.6199999999999974         -1.0681485642836412E-031
   4.6799999999999997         -1.1137404852705317E-031
   4.7399999999999984         -1.1356810082366543E-031
   4.7999999999999972         -1.1292805751799370E-031
   4.8599999999999994         -1.0898537367094448E-031
   4.9199999999999982         -1.0128524326499629E-031
   4.9800000000000004         -8.9401705017524035E-032
   5.0399999999999991         -7.2954433514274046E-032
   5.0999999999999979         -5.1627028547597464E-032
   5.1600000000000001         -2.5186552108246021E-032
   5.2199999999999989          6.4961282502724615E-033
   5.2799999999999976          4.3425427833068275E-032
   5.3399999999999999          8.5460366495046001E-032
   5.3999999999999986          1.3229435970120421E-031
   5.4599999999999973          1.8343644924245727E-031
   5.5199999999999996          2.3819446643540019E-031
   5.5799999999999983          2.9566121004996740E-031
   5.6400000000000006          3.5470407826247716E-031
   5.6999999999999993          4.1395944565555907E-031
   5.7599999999999980          4.7183235107111670E-031
   5.8200000000000003          5.2650260277731143E-031
   5.8799999999999990          5.7593795054164417E-031
   5.9399999999999977          6.1791524802235807E-031
   6.0000000000000000          6.5005019446316209E-031
   6.0599999999999987          6.6983618633819073E-031
   6.1199999999999974          6.7469303283421804E-031
   6.1799999999999997          6.6202492554970538E-031
   6.2399999999999984          6.2928851157237521E-031
   6.2999999999999972          5.7407030106557112E-031
   6.3599999999999994          4.9417263681030878E-031
   6.4199999999999982          3.8770778120705225E-031
   6.4800000000000004          2.5319834439613207E-031
   6.5399999999999991          8.9682613834419970E-032
   6.5999999999999979         -1.0317744330652742E-031
   6.6600000000000001         -3.2498759072761500E-031
   6.7199999999999989         -5.7451565263643819E-031
   6.7799999999999976         -8.4959152977479431E-031
   6.8399999999999999         -1.1470162852932217E-030
   6.8999999999999986         -1.4624848100155081E-030
   6.9599999999999973         -1.7905257281485684E-030
   7.0199999999999996         -2.1244626949087447E-030
   7.0799999999999983         -2.4564016439467152E-030
   7.1400000000000006         -2.7772485683485074E-030
   7.1999999999999993         -3.0767611458817000E-030
   7.2599999999999980         -3.3436395035346329E-030
   7.3200000000000003         -3.5656579991012243E-030
   7.3799999999999990         -3.7298417847353417E-030
   7.4399999999999977         -3.8226907194939333E-030
   7.5000000000000000         -3.8304506242401305E-030
   7.5599999999999987         -3.7394332575496988E-030
   7.6199999999999974         -3.5363840502160278E-030
   7.6799999999999997         -3.2088937592433611E-030
   7.7399999999999984         -2.7458514495164631E-030
   7.7999999999999972         -2.1379320687863065E-030
   7.8599999999999994         -1.3781138522485704E-030
   7.9199999999999982         -4.6221213853884079E-031
   7.9800000000000004          6.1057798806154301E-031
   8.0399999999999991          1.8371429746930495E-030
   8.1000000000000014          3.2099349084883094E-030
   8.1599999999999966          4.7164867776997887E-030
   8.2199999999999989          6.3389875162827232E-030
   8.2800000000000011          8.0539228897412584E-030
   8.3399999999999963          9.8318141359274867E-030
   8.3999999999999986          1.1637066376278333E-029
   8.4600000000000009          1.3427952516952745E-029
   8.5199999999999960          1.5156746984666589E-029
   8.5799999999999983          1.6770036360400829E-029
   8.6400000000000006          1.8209216090102715E-029