  -24.000000000000000          0.0000000000000000     
  -23.940000000000001          0.0000000000000000     
  -23.879999999999999          0.0000000000000000     
  -23.820000000000000          0.0000000000000000     
  -23.760000000000002          0.0000000000000000     
  -23.699999999999999          0.0000000000000000     
  -23.640000000000001          0.0000000000000000     
  -23.579999999999998          0.0000000000000000     
  -23.520000000000000          0.0000000000000000     
  -23.460000000000001          0.0000000000000000     
  -23.399999999999999          0.0000000000000000     
  -23.340000000000000          0.0000000000000000     
  -23.280000000000001          0.0000000000000000     
  -23.219999999999999          0.0000000000000000     
  -23.160000000000000          0.0000000000000000     
  -23.100000000000001          0.0000000000000000     
  -23.039999999999999          0.0000000000000000     
  -22.980000000000000          0.0000000000000000     
  -22.920000000000002          0.0000000000000000     
  -22.859999999999999          0.0000000000000000     
  -22.800000000000001          0.0000000000000000     
  -22.739999999999998          0.0000000000000000     
  -22.680000000000000          0.0000000000000000     
  -22.620000000000001          0.0000000000000000     
  -22.559999999999999          0.0000000000000000     
  -22.500000000000000          0.0000000000000000     
  -22.440000000000001          0.0000000000000000     
  -22.379999999999999          0.0000000000000000     
  -22.320000000000000          0.0000000000000000     
  -22.260000000000002          0.0000000000000000     
  -22.199999999999999          0.0000000000000000     
  -22.140000000000001          0.0000000000000000     
  -22.079999999999998          0.0000000000000000     
  -22.020000000000000          0.0000000000000000     
  -21.960000000000001          0.0000000000000000     
  -21.899999999999999          0.0000000000000000     
  -21.840000000000000          0.0000000000000000     
  -21.780000000000001          0.0000000000000000     
  -21.719999999999999          0.0000000000000000     
  -21.660000000000000          0.0000000000000000     
  -21.600000000000001          0.0000000000000000     
  -21.539999999999999          0.0000000000000000     
  -21.480000000000000          0.0000000000000000     
  -21.420000000000002          0.0000000000000000     
  -21.359999999999999          0.0000000000000000     
  -21.300000000000001          0.0000000000000000     
  -21.240000000000002          0.0000000000000000     
  -21.180000000000000          0.0000000000000000     
  -21.120000000000001          0.0000000000000000     
  -21.059999999999999          0.0000000000000000     
  -21.000000000000000          0.0000000000000000     
  -20.940000000000001          0.0000000000000000     
  -20.879999999999999          0.0000000000000000     
  -20.820000000000000          0.0000000000000000     
  -20.760000000000002          0.0000000000000000     
  -20.699999999999999          0.0000000000000000     
  -20.640000000000001          0.0000000000000000     
  -20.579999999999998          0.0000000000000000     
  -20.520000000000000          0.0000000000000000     
  -20.460000000000001          0.0000000000000000     
  -20.399999999999999          0.0000000000000000     
  -20.340000000000000          0.0000000000000000     
  -20.280000000000001          0.0000000000000000     
  -20.219999999999999          0.0000000000000000     
  -20.160000000000000          0.0000000000000000     
  -20.100000000000001          0.0000000000000000     
  -20.039999999999999          0.0000000000000000     
  -19.980000000000000          0.0000000000000000     
  -19.920000000000002          0.0000000000000000     
  -19.859999999999999          0.0000000000000000     
  -19.800000000000001          0.0000000000000000     
  -19.740000000000002          0.0000000000000000     
  -19.680000000000000          0.0000000000000000     
  -19.620000000000001          0.0000000000000000     
  -19.560000000000002          0.0000000000000000     
  -19.500000000000000          0.0000000000000000     
  -19.440000000000001          0.0000000000000000     
  -19.379999999999999          0.0000000000000000     
  -19.320000000000000          0.0000000000000000     
  -19.259999999999998          0.0000000000000000     
  -19.199999999999999          0.0000000000000000     
  -19.140000000000001          0.0000000000000000     
  -19.079999999999998          0.0000000000000000     
  -19.020000000000000          0.0000000000000000     
  -18.960000000000001          0.0000000000000000     
  -18.899999999999999          0.0000000000000000     
  -18.840000000000000          0.0000000000000000     
  -18.780000000000001          0.0000000000000000     
  -18.719999999999999          0.0000000000000000     
  -18.660000000000000          0.0000000000000000     
  -18.600000000000001          0.0000000000000000     
  -18.539999999999999          0.0000000000000000     
  -18.480000000000000          0.0000000000000000     
  -18.420000000000002          0.0000000000000000     
  -18.359999999999999          0.0000000000000000     
  -18.300000000000001          0.0000000000000000     
  -18.240000000000002          0.0000000000000000     
  -18.180000000000000          0.0000000000000000     
  -18.120000000000001          0.0000000000000000     
  -18.060000000000002          0.0000000000000000     
  -18.000000000000000          0.0000000000000000     
  -17.940000000000001         -9.1259718083444619E-041
  -17.879999999999999         -2.6556201559543645E-040
  -17.820000000000000         -5.4249797857263653E-040
  -17.759999999999998         -1.0559280588855767E-039
  -17.699999999999999         -1.7761942794102103E-039
  -17.640000000000001         -2.7244013784257037E-039
  -17.579999999999998         -3.9126334568623817E-039
  -17.520000000000000         -5.3391579536417696E-039
  -17.460000000000001         -6.9831814019979863E-039
  -17.399999999999999         -8.7131098077804829E-039
  -17.340000000000000         -1.0569172760812205E-038
  -17.280000000000001         -1.2453971623328922E-038
  -17.219999999999999         -1.3378796860889804E-038
  -17.160000000000000         -1.3094149113170891E-038
  -17.100000000000001         -1.1453113710632202E-038
  -17.039999999999999         -8.7950751940393969E-039
  -16.980000000000000         -4.4087812543352273E-039
  -16.920000000000002          1.8016210189565788E-039
  -16.859999999999999          9.9351067943059239E-039
  -16.800000000000001          1.9670735976813662E-038
  -16.740000000000002          3.0092395347126971E-038
  -16.680000000000000          4.0758755442851948E-038
  -16.620000000000001          5.1438565408848190E-038
  -16.560000000000002          5.8915206703641102E-038
  -16.500000000000000          6.3286847277556365E-038
  -16.440000000000001          6.4153579227060230E-038
  -16.379999999999999          6.3513665772764922E-038
  -16.320000000000000          6.0991810924473173E-038
  -16.260000000000002          5.6026887046945600E-038
  -16.199999999999999          4.7319440348933045E-038
  -16.140000000000001          3.3092655839869006E-038
  -16.079999999999998          1.3192971929182834E-038
  -16.020000000000000         -1.3502135494337313E-038
  -15.960000000000001         -4.7634174599561029E-038
  -15.900000000000000         -9.0642549340723935E-038
  -15.840000000000000         -1.4344064406524438E-037
  -15.780000000000001         -2.0678121723479941E-037
  -15.720000000000001         -2.7793926438265701E-037
  -15.660000000000000         -3.5556839724430598E-037
  -15.600000000000000         -4.3221439769944707E-037
  -15.540000000000001         -5.0105389035908724E-037
  -15.480000000000000         -5.5649791399221436E-037
  -15.420000000000000         -5.8933120751437181E-037
  -15.359999999999999         -5.8829871232012526E-037
  -15.300000000000001         -5.4112325232410277E-037
  -15.240000000000000         -4.3838429325892867E-037
  -15.180000000000000         -2.6711047508818053E-037
  -15.120000000000001         -1.6021950011608504E-038
  -15.060000000000000          3.2119081499759123E-037
  -15.000000000000000          7.4972489580096510E-037
  -14.940000000000000          1.2721734787502737E-036
  -14.880000000000001          1.8916060994081152E-036
  -14.820000000000000          2.5950055548210364E-036
  -14.760000000000000          3.3614062583916845E-036
  -14.700000000000001          4.1590378290461294E-036
  -14.640000000000001          4.9450812004771168E-036
  -14.580000000000000          5.6551566690711118E-036
  -14.520000000000000          6.2265274054447054E-036
  -14.460000000000001          6.5843448440464076E-036
  -14.400000000000000          6.6326848029584663E-036
  -14.340000000000000          6.2498443162468307E-036
  -14.280000000000001          5.3167649319952630E-036
  -14.220000000000001          3.6971803646251693E-036
  -14.160000000000000          1.2473598743175140E-036
  -14.100000000000000         -2.1349416858694526E-036
  -14.040000000000001         -6.5455639778453308E-036
  -13.980000000000000         -1.2033191635723578E-035
  -13.920000000000000         -1.8606138283811543E-035
  -13.860000000000001         -2.6231763640390574E-035
  -13.800000000000001         -3.4806912800711141E-035
  -13.740000000000000         -4.4131226699156656E-035
  -13.680000000000000         -5.3896297654787002E-035
  -13.620000000000001         -6.3679140331794907E-035
  -13.560000000000000         -7.2918269727475096E-035
  -13.500000000000000         -8.0887194987562252E-035
  -13.440000000000001         -8.6705018655428745E-035
  -13.380000000000001         -8.9348411877522193E-035
  -13.320000000000000         -8.7685020499524372E-035
  -13.260000000000000         -8.0371967134975120E-035
  -13.200000000000001         -6.6017341727429607E-035
  -13.140000000000001         -4.3237101963669350E-035
  -13.080000000000000         -1.0671998172392129E-035
  -13.020000000000000          3.2911787902677068E-035
  -12.960000000000001          8.8494387710275072E-035
  -12.900000000000000          1.5669907431977376E-034
  -12.840000000000000          2.3762532854399697E-034
  -12.780000000000001          3.3069552231475277E-034
  -12.720000000000001          4.3448186411863830E-034
  -12.660000000000000          5.4653963064507070E-034
  -12.600000000000000          6.6324875399805440E-034
  -12.540000000000001          7.7960607109890622E-034
  -12.480000000000000          8.8915625442628197E-034
  -12.420000000000000          9.8391052117976187E-034
  -12.360000000000001          1.0542734906031809E-033
  -12.300000000000001          1.0891560320119693E-033
  -12.240000000000000          1.0760807420424068E-033
  -12.180000000000000          1.0014953120311389E-033
  -12.120000000000001          8.5115949792776889E-034
  -12.060000000000000          6.1069879208500810E-034
  -12.000000000000000          2.6632090757390605E-034
  -11.940000000000001         -1.9430041840578754E-034
  -11.880000000000001         -7.8096693823320279E-034
  -11.820000000000000         -1.4997535410119761E-033
  -11.760000000000000         -2.3516259020610349E-033
  -11.700000000000001         -3.3309879780626666E-033
  -11.640000000000001         -4.4241366824199132E-033
  -11.580000000000000         -5.6077203906768207E-033
  -11.520000000000000         -6.8472577247007890E-033
  -11.460000000000001         -8.0958358457075531E-033
  -11.400000000000000         -9.2930734279875342E-033
  -11.340000000000000         -1.0364470403318410E-032
  -11.280000000000001         -1.1221308540687427E-032
  -11.220000000000001         -1.1761205669830756E-032
  -11.160000000000000         -1.1869515215178438E-032
  -11.100000000000000         -1.1421681775807728E-032
  -11.040000000000001         -1.0286737730652054E-032
  -10.980000000000000         -8.3319861604176345E-033
  -10.920000000000000         -5.4290156918609561E-033
  -10.860000000000001         -1.4610701227819368E-033
  -10.800000000000001          3.6682576840173343E-033
  -10.740000000000000          1.0025024208334252E-032
  -10.680000000000000          1.7633843055856156E-032
  -10.620000000000001          2.6465925001381480E-032
  -10.560000000000000          3.6426610152372443E-032
  -10.500000000000000          4.7342838245732382E-032
  -10.440000000000001          5.8951167287933660E-032
  -10.380000000000001          7.0886990518675334E-032
  -10.320000000000000          8.2675811243641584E-032
  -10.260000000000000          9.3727464702098342E-032
  -10.200000000000001          1.0333421505421022E-031
  -10.140000000000001          1.1067391562527580E-031
  -10.080000000000000          1.1481921267604837E-031
  -10.020000000000001          1.1475380639331368E-031
  -9.9600000000000009          1.0939690063263956E-031
  -9.9000000000000004          9.7636516571854256E-032
  -9.8399999999999999          7.8372381826983228E-032
  -9.7800000000000011          5.0568804608915915E-032
  -9.7200000000000006          1.3317406358127917E-032
  -9.6600000000000001         -3.4090707614362784E-032
  -9.6000000000000014         -9.2084234076674224E-032
  -9.5400000000000009         -1.6072414891416983E-031
  -9.4800000000000004         -2.3961170717555660E-031
  -9.4199999999999999         -3.2779459517450619E-031
  -9.3600000000000012         -4.2367566425389548E-031
  -9.3000000000000007         -5.2492802216253847E-031
  -9.2400000000000002         -6.2842246163564917E-031
  -9.1799999999999997         -7.3017279791135681E-031
  -9.1200000000000010         -8.2530567269973140E-031
  -9.0600000000000005         -9.0806203346558233E-031
  -9.0000000000000000         -9.7183724611079185E-031
  -8.9400000000000013         -1.0092669102078576E-030
  -8.8800000000000008         -1.0123655241756657E-030
  -8.8200000000000003         -9.7272337052719496E-031
  -8.7599999999999998         -8.8176723948694338E-031
  -8.7000000000000011         -7.3108765371035704E-031
  -8.6400000000000006         -5.1283365636557464E-031
  -8.5800000000000001         -2.2017451913353427E-031
  -8.5200000000000014          1.5217779395283396E-031
  -8.4600000000000009          6.0739143915171629E-031
  -8.4000000000000004          1.1458975845358563E-030
  -8.3399999999999999          1.7647477064154043E-030
  -8.2800000000000011          2.4569681492997591E-030
  -8.2200000000000006          3.2109374318422489E-030
  -8.1600000000000001          4.0098163105923296E-030
  -8.1000000000000014          4.8310671479057038E-030
  -8.0400000000000009          5.6461007740232334E-030
  -7.9800000000000004          6.4200923268101444E-030
  -7.9200000000000017          7.1120118662634481E-030
  -7.8599999999999994          7.6749130270724132E-030
  -7.8000000000000007          8.0565249984597352E-030
  -7.7400000000000020          8.2001887324611443E-030
  -7.6799999999999997          8.0461702231421458E-030
  -7.6200000000000010          7.5333857680630419E-030
  -7.5600000000000023          6.6015475417068856E-030
  -7.5000000000000000          5.1937433287764704E-030
  -7.4400000000000013          3.2594322718534083E-030
  -7.3799999999999990          7.5782627339532811E-031
  -7.3200000000000003         -2.3383876867943116E-030
  -7.2600000000000016         -6.0390746261875164E-030
  -7.1999999999999993         -1.0332514282216127E-029
  -7.1400000000000006         -1.5181241216721018E-029
  -7.0800000000000018         -2.0518008356021750E-029
  -7.0199999999999996         -2.6242067992103129E-029
  -6.9600000000000009         -3.2215967031022125E-029
  -6.9000000000000021         -3.8263100163185294E-029
  -6.8399999999999999         -4.4166251486919179E-029
  -6.7800000000000011         -4.9667398902572088E-029
  -6.7199999999999989         -5.4469042489109492E-029
  -6.6600000000000001         -5.8237294781954396E-029
  -6.6000000000000014         -6.0607008668834474E-029
  -6.5399999999999991         -6.1189126927239684E-029
  -6.4800000000000004         -5.9580441566506335E-029
  -6.4200000000000017         -5.5375853067639305E-029
  -6.3599999999999994         -4.8183208779724384E-029
  -6.3000000000000007         -3.7640638906882461E-029
  -6.2400000000000020         -2.3436250617705129E-029
  -6.1799999999999997         -5.3299364824438775E-030
  -6.1200000000000010          1.6823119852387646E-029
  -6.0600000000000023          4.3047766836958968E-029
  -6.0000000000000000          7.3223730104683060E-029
  -5.9400000000000013          1.0706076926693863E-028
  -5.8799999999999990          1.4407517948553810E-028
  -5.8200000000000003          1.8356867350815719E-028
  -5.7600000000000016          2.2461098871581467E-028
  -5.6999999999999993          2.6602744195151804E-028
  -5.6400000000000006          3.0639289650091422E-028
  -5.5800000000000018          3.4403368575985780E-028
  -5.5199999999999996          3.7703870152323609E-028
  -5.4600000000000009          4.0328119379598903E-028
  -5.4000000000000021          4.2045263708167328E-028
  -5.3399999999999999          4.2610946883711668E-028
  -5.2800000000000011          4.1773349670109885E-028
  -5.2200000000000024          3.9280672257186020E-028
  -5.1600000000000001          3.4890053095085066E-028
  -5.1000000000000014          2.8377832444280029E-028
  -5.0399999999999991          1.9551141934555140E-028
  -4.9800000000000004          8.2605689507014137E-029
  -4.9200000000000017         -5.5862752904964245E-029
  -4.8599999999999994         -2.2010641023559559E-028
  -4.8000000000000007         -4.0948309853873838E-028
  -4.7400000000000020         -6.2235577302564809E-028
  -4.6799999999999997         -8.5596020528218313E-028
  -4.6200000000000010         -1.1062868787777262E-027
  -4.5600000000000023         -1.3679837999375675E-027
  -4.5000000000000000         -1.6342868974334246E-027
  -4.4400000000000013         -1.8969857347662507E-027
  -4.3799999999999990         -2.1464329821888470E-027
  -4.3200000000000003         -2.3716026178209942E-027
  -4.2600000000000016         -2.5602069933829456E-027
  -4.1999999999999993         -2.6988766954589734E-027
  -4.1400000000000006         -2.7734101482684627E-027
  -4.0800000000000018         -2.7690956522648019E-027
  -4.0199999999999996         -2.6711101008235375E-027
  -3.9600000000000009         -2.4649917405592061E-027
  -3.9000000000000021         -2.1371872937168746E-027
  -3.8399999999999999         -1.6756666822910030E-027
  -3.7800000000000011         -1.0705969972675836E-027
  -3.7200000000000024         -3.1506645250393979E-028
  -3.6600000000000001          5.9416166598546453E-028
  -3.6000000000000014          1.6558777112078032E-027
  -3.5399999999999991          2.8636669615378908E-027
  -3.4800000000000004          4.2051826722240513E-027
  -3.4200000000000017          5.6614854560243703E-027
  -3.3599999999999994          7.2064793078505812E-027
  -3.3000000000000007          8.8064799884369743E-027
  -3.2400000000000020          1.0419950405426235E-026
  -3.1799999999999997          1.1997444460905643E-026
  -3.1200000000000010          1.3481792161971104E-026
  -3.0600000000000023          1.4808560160366438E-026
  -3.0000000000000000          1.5906829973219600E-026
  -2.9400000000000013          1.6700309652537924E-026
  -2.8800000000000026          1.7108807226841077E-026
  -2.8200000000000003          1.7050083352200297E-026
  -2.7600000000000016          1.6442075085083574E-026
  -2.6999999999999993          1.5205509401829998E-026
  -2.6400000000000006          1.3266857209674914E-026
  -2.5800000000000018          1.0561621421720338E-026
  -2.5199999999999996          7.0378929200922942E-027
  -2.4600000000000009          2.6601204035108617E-027
  -2.4000000000000021         -2.5869895840394807E-027
  -2.3399999999999999         -8.6945440654490004E-027
  -2.2800000000000011         -1.5625627965376250E-026
  -2.2200000000000024         -2.3311655546778225E-026
  -2.1600000000000001         -3.1649131397715518E-026
  -2.1000000000000014         -4.0496889035212647E-026
  -2.0399999999999991         -4.9674034714322236E-026
  -1.9800000000000004         -5.8958756062693430E-026
  -1.9200000000000017         -6.8088169242830189E-026
  -1.8599999999999994         -7.6759362451701531E-026
  -1.8000000000000007         -8.4631837659295644E-026
  -1.7400000000000020         -9.1331438268272432E-026
  -1.6799999999999997         -9.6455945691158833E-026
  -1.6200000000000010         -9.9582449271244550E-026
  -1.5600000000000023         -1.0027643099581642E-025
  -1.5000000000000000         -9.8102784956719949E-026
  -1.4400000000000013         -9.2638532416970766E-026
  -1.3800000000000026         -8.3487289765371478E-026
  -1.3200000000000003         -7.0295242177720431E-026
  -1.2600000000000016         -5.2768453697039098E-026
  -1.1999999999999993         -3.0691213912646379E-026
  -1.1400000000000006         -3.9449485563468317E-027
  -1.0800000000000018          2.7472542104550666E-026
  -1.0199999999999996          6.3428257615800240E-026
 -0.96000000000000085          1.0363608120257561E-025
 -0.90000000000000213          1.4764038339069039E-025
 -0.83999999999999986          1.9480195074014291E-025
 -0.78000000000000114          2.4428690041200813E-025
 -0.72000000000000242          2.9505950510965027E-025
 -0.66000000000000014          3.4587946911041092E-025
 -0.60000000000000142          3.9530470928112505E-025
 -0.53999999999999915          4.4170027173773341E-025
 -0.48000000000000043          4.8325387621930571E-025
 -0.42000000000000171          5.1799915562381112E-025
 -0.35999999999999943          5.4384650094818266E-025
 -0.30000000000000071          5.5862226627759090E-025
 -0.24000000000000199          5.6011634718457575E-025
 -0.17999999999999972          5.4613791657501525E-025
 -0.12000000000000099          5.1457929948792927E-025
  -6.0000000000002274E-002     4.6348730532974735E-025
   0.0000000000000000          3.9114108712822211E-025
   5.9999999999998721E-002     2.9613545694958273E-025
  0.11999999999999744          1.7746818496413940E-025
  0.17999999999999972          3.4629574648607449E-026
  0.23999999999999844         -1.3230787819721366E-025
  0.30000000000000071         -3.2260237274236530E-025
  0.35999999999999943         -5.3476009063296455E-025
  0.41999999999999815         -7.6646130372555121E-025
  0.48000000000000043         -1.0144969076610255E-024
  0.53999999999999915         -1.2747198380150379E-024
  0.59999999999999787         -1.5420136597795324E-024
  0.66000000000000014         -1.8102833457907768E-024
  0.71999999999999886         -2.0724704300861696E-024
  0.77999999999999758         -2.3205952508125989E-024
  0.83999999999999986         -2.5458307240055500E-024
  0.89999999999999858         -2.7386089182310698E-024
  0.96000000000000085         -2.8887630400555928E-024
   1.0199999999999996         -2.9857056148408609E-024
   1.0799999999999983         -3.0186442731100030E-024
   1.1400000000000006         -2.9768334999736532E-024
   1.1999999999999993         -2.8498634738995584E-024
   1.2599999999999980         -2.6279797400146545E-024
   1.3200000000000003         -2.3024356202611024E-024
   1.3799999999999990         -1.8658660398540890E-024
   1.4399999999999977         -1.3126831167714786E-024
   1.5000000000000000         -6.3947961897061266E-025
   1.5599999999999987          1.5456121146206967E-025
   1.6199999999999974          1.0672658174009349E-024
   1.6799999999999997          2.0930903535526003E-024
   1.7399999999999984          3.2227685171313932E-024
   1.8000000000000007          4.4430060482602743E-024
   1.8599999999999994          5.7362316820656264E-024
   1.9199999999999982          7.0804235485163786E-024
   1.9800000000000004          8.4490197026525532E-024
   2.0399999999999991          9.8109302217782966E-024
   2.0999999999999979          1.1130667248719867E-023
   2.1600000000000001          1.2368597496530578E-023
   2.2199999999999989          1.3481340378614392E-023
   2.2799999999999976          1.4422310220956268E-023
   2.3399999999999999          1.5142417433870259E-023
   2.3999999999999986          1.5590924513597287E-023
   2.4599999999999973          1.5716469717326509E-023
   2.5199999999999996          1.5468245263855189E-023
   2.5799999999999983          1.4797325851242540E-023
   2.6400000000000006          1.3658138761598415E-023
   2.6999999999999993          1.2010054483739701E-023
   2.7599999999999980          9.8190786665324579E-024
   2.8200000000000003          7.0596229644262779E-024
   2.8799999999999990          3.7163044421744765E-024
   2.9399999999999977         -2.1423576938439131E-025
   3.0000000000000000         -4.7215658092690570E-024
   3.0599999999999987         -9.7797811406732295E-024
   3.1199999999999974         -1.5345953780879250E-023
   3.1799999999999997         -2.1358785414662960E-023
   3.2399999999999984         -2.7737510820439692E-023
   3.3000000000000007         -3.4381114764906939E-023
   3.3599999999999994         -4.1167917741268048E-023
   3.4199999999999982         -4.7955611937519373E-023
   3.4800000000000004         -5.4581749702955537E-023
   3.5399999999999991         -6.0864830912533094E-023
   3.5999999999999979         -6.6605936643017955E-023
   3.6600000000000001         -7.1591011159114617E-023
   3.7199999999999989         -7.5593817543853195E-023
   3.7799999999999976         -7.8379577231015376E-023
   3.8399999999999999         -7.9709264514504488E-023
   3.8999999999999986         -7.9344631234065868E-023
   3.9599999999999973         -7.7053863178260321E-023
   4.0199999999999996         -7.2617853244321105E-023
   4.0799999999999983         -6.5837011069950890E-023
   4.1400000000000006         -5.6538574460166097E-023
   4.1999999999999993         -4.4584250404495815E-023
   4.2599999999999980         -2.9878080244813452E-023
   4.3200000000000003         -1.2374432511770784E-023
   4.3799999999999990          7.9141136210548752E-024
   4.4399999999999977          3.0909208092810338E-023
   4.5000000000000000          5.6459536293077571E-023
   4.5599999999999987          8.4334474125396351E-023
   4.6199999999999974          1.1421856648000133E-022
   4.6799999999999997          1.4570727614292995E-022
   4.7399999999999984          1.7830415606250020E-022
   4.7999999999999972          2.1141971136672151E-022
   4.8599999999999994          2.4437217389540876E-022
   4.9199999999999982          2.7639051450568898E-022
   4.9800000000000004          3.0661981479161358E-022
   5.0399999999999991          3.3412915057680359E-022
   5.0999999999999979          3.5792240854323228E-022
   5.1600000000000001          3.7695168508261200E-022
   5.2199999999999989          3.9013386107773684E-022
   5.2799999999999976          3.9637001255103884E-022
   5.3399999999999999          3.9456761465975185E-022
   5.3999999999999986          3.8366568292367868E-022
   5.4599999999999973          3.6266238407837526E-022
   5.5199999999999996          3.3064508726415901E-022
   5.5799999999999983          2.8682212668911872E-022
   5.6400000000000006          2.3055628443388019E-022
   5.6999999999999993          1.6139910472064256E-022
   5.7599999999999980          7.9125533543866792E-023
   5.8200000000000003         -1.6231676612375808E-023
   5.8799999999999990         -1.2434889965362579E-022
   5.9399999999999977         -2.4458044383112098E-022
   6.0000000000000000         -3.7593044042884192E-022
   6.0599999999999987         -5.1702863613033276E-022
   6.1199999999999974         -6.6611122249939408E-022
   6.1799999999999997         -8.2100727184784154E-022
   6.2399999999999984         -9.7913301464944146E-022
   6.2999999999999972         -1.1374933736514705E-021
   6.3599999999999994         -1.2926929650410549E-021
   6.4199999999999982         -1.4409569952660142E-021
   6.4800000000000004         -1.5781629318643814E-021
   6.5399999999999991         -1.6998835708619103E-021
   6.5999999999999979         -1.8014421254760046E-021
   6.6600000000000001         -1.8779793705832754E-021
   6.7199999999999989         -1.9245338847603302E-021
   6.7799999999999976         -1.9361334273837594E-021
   6.8399999999999999         -1.9078993508236061E-021
   6.8999999999999986         -1.8351619560768243E-021
   6.9599999999999973         -1.7135848456656106E-021
   7.0199999999999996         -1.5392997681617936E-021
   7.0799999999999983         -1.3090476453113226E-021
   7.1400000000000006         -1.0203240225247189E-021
   7.1999999999999993         -6.7152855075738969E-022
   7.2599999999999980         -2.6211281325241047E-022
   7.3200000000000003          2.0727395594945932E-022
   7.3799999999999990          7.3464684072646095E-022
   7.4399999999999977          1.3165568627715884E-021
   7.5000000000000000          1.9479778893650192E-021
   7.5599999999999987          2.6222110737840982E-021
   7.6199999999999974          3.3308119923557236E-021
   7.6799999999999997          4.0635457203573232E-021
   7.7399999999999984          4.8083720388763001E-021
   7.7999999999999972          5.5514657274356680E-021
   7.8599999999999994          6.2772773428718234E-021
   7.9199999999999982          6.9686351064328266E-021
   7.9800000000000004          7.6068928472501913E-021
   8.0399999999999991          8.1721283593808124E-021
   8.1000000000000014          8.6433878212118740E-021
   8.1599999999999966          8.9989831025968117E-021
   8.2199999999999989          9.2168431358327158E-021
   8.2800000000000011          9.2749115131274953E-021
   8.3399999999999963          9.1515930920720740E-021
   8.3999999999999986          8.8262494624480165E-021
   8.4600000000000009          8.2797297213861650E-021
   8.5199999999999960          7.4949398073443456E-021
   8.5799999999999983          6.4574394822394530E-021
   8.6400000000000006          5.1560553536256286E-021