  -24.000000000000000          0.0000000000000000     
  -23.940000000000001          0.0000000000000000     
  -23.879999999999999          0.0000000000000000     
  -23.820000000000000          0.0000000000000000     
  -23.760000000000002          0.0000000000000000     
  -23.699999999999999          0.0000000000000000     
  -23.640000000000001          0.0000000000000000     
  -23.579999999999998          0.0000000000000000     
  -23.520000000000000          0.0000000000000000     
  -23.460000000000001          0.0000000000000000     
  -23.399999999999999          0.0000000000000000     
  -23.340000000000000          0.0000000000000000     
  -23.280000000000001          0.0000000000000000     
  -23.219999999999999          0.0000000000000000     
  -23.160000000000000          0.0000000000000000     
  -23.100000000000001          0.0000000000000000     
  -23.039999999999999          0.0000000000000000     
  -22.980000000000000          0.0000000000000000     
  -22.920000000000002          0.0000000000000000     
  -22.859999999999999          0.0000000000000000     
  -22.800000000000001          0.0000000000000000     
  -22.739999999999998          0.0000000000000000     
  -22.680000000000000          0.0000000000000000     
  -22.620000000000001          0.0000000000000000     
  -22.559999999999999          0.0000000000000000     
  -22.500000000000000          0.0000000000000000     
  -22.440000000000001          0.0000000000000000     
  -22.379999999999999          0.0000000000000000     
  -22.320000000000000          0.0000000000000000     
  -22.260000000000002          0.0000000000000000     
  -22.199999999999999          0.0000000000000000     
  -22.140000000000001          0.0000000000000000     
  -22.079999999999998          0.0000000000000000     
  -22.020000000000000          0.0000000000000000     
  -21.960000000000001          0.0000000000000000     
  -21.899999999999999          0.0000000000000000     
  -21.840000000000000          0.0000000000000000     
  -21.780000000000001          0.0000000000000000     
  -21.719999999999999          0.0000000000000000     
  -21.660000000000000          0.0000000000000000     
  -21.600000000000001          0.0000000000000000     
  -21.539999999999999          0.0000000000000000     
  -21.480000000000000          0.0000000000000000     
  -21.420000000000002          0.0000000000000000     
  -21.359999999999999          0.0000000000000000     
  -21.300000000000001          0.0000000000000000     
  -21.240000000000002          0.0000000000000000     
  -21.180000000000000          0.0000000000000000     
  -21.120000000000001          0.0000000000000000     
  -21.059999999999999          0.0000000000000000     
  -21.000000000000000          0.0000000000000000     
  -20.940000000000001          0.0000000000000000     
  -20.879999999999999          0.0000000000000000     
  -20.820000000000000          0.0000000000000000     
  -20.760000000000002          0.0000000000000000     
  -20.699999999999999          0.0000000000000000     
  -20.640000000000001          0.0000000000000000     
  -20.579999999999998          0.0000000000000000     
  -20.520000000000000          0.0000000000000000     
  -20.460000000000001          0.0000000000000000     
  -20.399999999999999          0.0000000000000000     
  -20.340000000000000          0.0000000000000000     
  -20.280000000000001          0.0000000000000000     
  -20.219999999999999          0.0000000000000000     
  -20.160000000000000          0.0000000000000000     
  -20.100000000000001          0.0000000000000000     
  -20.039999999999999          0.0000000000000000     
  -19.980000000000000          0.0000000000000000     
  -19.920000000000002          0.0000000000000000     
  -19.859999999999999          0.0000000000000000     
  -19.800000000000001          0.0000000000000000     
  -19.740000000000002          0.0000000000000000     
  -19.680000000000000          0.0000000000000000     
  -19.620000000000001          0.0000000000000000     
  -19.560000000000002          0.0000000000000000     
  -19.500000000000000          0.0000000000000000     
  -19.440000000000001          0.0000000000000000     
  -19.379999999999999          0.0000000000000000     
  -19.320000000000000          0.0000000000000000     
  -19.259999999999998          0.0000000000000000     
  -19.199999999999999          0.0000000000000000     
  -19.140000000000001          0.0000000000000000     
  -19.079999999999998          0.0000000000000000     
  -19.020000000000000          0.0000000000000000     
  -18.960000000000001          0.0000000000000000     
  -18.899999999999999          0.0000000000000000     
  -18.840000000000000          0.0000000000000000     
  -18.780000000000001          0.0000000000000000     
  -18.719999999999999          0.0000000000000000     
  -18.660000000000000          0.0000000000000000     
  -18.600000000000001          0.0000000000000000     
  -18.539999999999999          0.0000000000000000     
  -18.480000000000000          0.0000000000000000     
  -18.420000000000002          0.0000000000000000     
  -18.359999999999999          0.0000000000000000     
  -18.300000000000001          0.0000000000000000     
  -18.240000000000002          0.0000000000000000     
  -18.180000000000000          0.0000000000000000     
  -18.120000000000001          0.0000000000000000     
  -18.060000000000002          0.0000000000000000     
  -18.000000000000000          0.0000000000000000     
  -17.940000000000001          0.0000000000000000     
  -17.879999999999999          0.0000000000000000     
  -17.820000000000000          0.0000000000000000     
  -17.759999999999998          0.0000000000000000     
  -17.699999999999999          0.0000000000000000     
  -17.640000000000001          0.0000000000000000     
  -17.579999999999998          0.0000000000000000     
  -17.520000000000000          0.0000000000000000     
  -17.460000000000001          0.0000000000000000     
  -17.399999999999999          0.0000000000000000     
  -17.340000000000000          0.0000000000000000     
  -17.280000000000001          0.0000000000000000     
  -17.219999999999999          0.0000000000000000     
  -17.160000000000000          0.0000000000000000     
  -17.100000000000001          0.0000000000000000     
  -17.039999999999999          0.0000000000000000     
  -16.980000000000000          0.0000000000000000     
  -16.920000000000002          0.0000000000000000     
  -16.859999999999999          0.0000000000000000     
  -16.800000000000001          0.0000000000000000     
  -16.740000000000002          0.0000000000000000     
  -16.680000000000000          0.0000000000000000     
  -16.620000000000001          0.0000000000000000     
  -16.560000000000002          0.0000000000000000     
  -16.500000000000000          0.0000000000000000     
  -16.440000000000001          0.0000000000000000     
  -16.379999999999999          0.0000000000000000     
  -16.320000000000000          0.0000000000000000     
  -16.260000000000002          0.0000000000000000     
  -16.199999999999999          0.0000000000000000     
  -16.140000000000001          0.0000000000000000     
  -16.079999999999998          0.0000000000000000     
  -16.020000000000000          0.0000000000000000     
  -15.960000000000001          0.0000000000000000     
  -15.900000000000000          0.0000000000000000     
  -15.840000000000000          0.0000000000000000     
  -15.780000000000001          0.0000000000000000     
  -15.720000000000001          0.0000000000000000     
  -15.660000000000000          0.0000000000000000     
  -15.600000000000000          0.0000000000000000     
  -15.540000000000001          0.0000000000000000     
  -15.480000000000000          0.0000000000000000     
  -15.420000000000000          0.0000000000000000     
  -15.359999999999999          0.0000000000000000     
  -15.300000000000001          0.0000000000000000     
  -15.240000000000000          0.0000000000000000     
  -15.180000000000000         -2.2605392076786366E-040
  -15.120000000000001         -5.9054493371434002E-040
  -15.060000000000000         -1.1213433867471988E-039
  -15.000000000000000         -1.8434900399716286E-039
  -14.940000000000000         -2.7767510913464832E-039
  -14.880000000000001         -3.9331944451152887E-039
  -14.820000000000000         -5.3143631362730518E-039
  -14.760000000000000         -6.9078772396719367E-039
  -14.700000000000001         -8.7194244219650855E-039
  -14.640000000000001         -1.0739718358668151E-038
  -14.580000000000000         -1.2899756492820428E-038
  -14.520000000000000         -1.2679243372104311E-038
  -14.460000000000001         -1.1020819382896440E-038
  -14.400000000000000         -6.8809516587605525E-039
  -14.340000000000000          1.6437353627224180E-040
  -14.280000000000001          1.0201747940404491E-038
  -14.220000000000001          2.2596664666403375E-038
  -14.160000000000000          3.7378413583219715E-038
  -14.100000000000000          5.4350956099309925E-038
  -14.040000000000001          7.3194702860179163E-038
  -13.980000000000000          9.3301375034099053E-038
  -13.920000000000000          1.1383671732650749E-037
  -13.860000000000001          1.3444310319247051E-037
  -13.800000000000001          1.5488691443939808E-037
  -13.740000000000000          1.6574601805915745E-037
  -13.680000000000000          1.6452994961282387E-037
  -13.620000000000001          1.5137388219827015E-037
  -13.560000000000000          1.3395881724386011E-037
  -13.500000000000000          1.1031996599268206E-037
  -13.440000000000001          8.0937644610007692E-038
  -13.380000000000001          4.3664148059412002E-038
  -13.320000000000000         -7.5769307657210279E-040
  -13.260000000000000         -5.2676318293365063E-038
  -13.200000000000001         -1.1255725178820233E-037
  -13.140000000000001         -1.8218306123480174E-037
  -13.080000000000000         -2.6053007589572819E-037
  -13.020000000000000         -3.4786965551523187E-037
  -12.960000000000001         -4.5272688312646249E-037
  -12.900000000000000         -5.6767432378083373E-037
  -12.840000000000000         -6.7411128963108159E-037
  -12.780000000000001         -7.7352691698454186E-037
  -12.720000000000001         -8.5495175588291006E-037
  -12.660000000000000         -9.1038411877550677E-037
  -12.600000000000000         -9.3108100526203119E-037
  -12.540000000000001         -9.0711743344050045E-037
  -12.480000000000000         -8.2756283917518072E-037
  -12.420000000000000         -6.8365632798607782E-037
  -12.360000000000001         -4.6026664925773837E-037
  -12.300000000000001         -1.4919496297448743E-037
  -12.240000000000000          2.5283082178342843E-037
  -12.180000000000000          7.4845300437404613E-037
  -12.120000000000001          1.3375335531128339E-036
  -12.060000000000000          1.9896820343758082E-036
  -12.000000000000000          2.6981351241975392E-036
  -11.940000000000001          3.4382587955673656E-036
  -11.880000000000001          4.1760358031825116E-036
  -11.820000000000000          4.8729556766569783E-036
  -11.760000000000000          5.4677698769073380E-036
  -11.700000000000001          5.8976000795141323E-036
  -11.640000000000001          6.0877538265362114E-036
  -11.580000000000000          5.9595982459400190E-036
  -11.520000000000000          5.4266484759900306E-036
  -11.460000000000001          4.4104176003335751E-036
  -11.400000000000000          2.8287968483650253E-036
  -11.340000000000000          5.8338688469743022E-037
  -11.280000000000001         -2.3631245199549309E-036
  -11.220000000000001         -6.0711418014092799E-036
  -11.160000000000000         -1.0525657091967589E-035
  -11.100000000000000         -1.5712623375541822E-035
  -11.040000000000001         -2.1569156075200178E-035
  -10.980000000000000         -2.7936407557088087E-035
  -10.920000000000000         -3.4620956189274736E-035
  -10.860000000000001         -4.1386658602913703E-035
  -10.800000000000001         -4.7912792509251256E-035
  -10.740000000000000         -5.3805878608744970E-035
  -10.680000000000000         -5.8600117029284760E-035
  -10.620000000000001         -6.1752414104542322E-035
  -10.560000000000000         -6.2653297401740043E-035
  -10.500000000000000         -6.0637046331569850E-035
  -10.440000000000001         -5.4989696724867093E-035
  -10.380000000000001         -4.4989699669709745E-035
  -10.320000000000000         -2.9916633198615559E-035
  -10.260000000000000         -9.1168597757703970E-036
  -10.200000000000001          1.8003029403757525E-035
  -10.140000000000001          5.1929890403769757E-035
  -10.080000000000000          9.2939391549213945E-035
  -10.020000000000001          1.4106537020425941E-034
  -9.9600000000000009          1.9601860329758478E-034
  -9.9000000000000004          2.5712679914197258E-034
  -9.8399999999999999          3.2327682794439016E-034
  -9.7800000000000011          3.9282523513563330E-034
  -9.7200000000000006          4.6354939951384008E-034
  -9.6600000000000001          5.3259716334773872E-034
  -9.6000000000000014          5.9645311839700897E-034
  -9.5400000000000009          6.5092152266711328E-034
  -9.4800000000000004          6.9114822487201218E-034
  -9.4199999999999999          7.1165751016598148E-034
  -9.3600000000000012          7.0642165289852572E-034
  -9.3000000000000007          6.6901761669774176E-034
  -9.2400000000000002          5.9272192886832563E-034
  -9.1799999999999997          4.7083706276462831E-034
  -9.1200000000000010          2.9693504700426326E-034
  -9.0600000000000005          6.5185789540514526E-035
  -9.0000000000000000         -2.2924405579250463E-034
  -8.9400000000000013         -5.8973091992502516E-034
  -8.8800000000000008         -1.0176967603235354E-033
  -8.8200000000000003         -1.5120765123511199E-033
  -8.7599999999999998         -2.0687555667638905E-033
  -8.7000000000000011         -2.6800140913487058E-033
  -8.6400000000000006         -3.3339726923928083E-033
  -8.5800000000000001         -4.0140805740013222E-033
  -8.5200000000000014         -4.6986780319657170E-033
  -8.4600000000000009         -5.3606783987963346E-033
  -8.4000000000000004         -5.9673726796753194E-033
  -8.3399999999999999         -6.4804277523721046E-033
  -8.2800000000000011         -6.8561317482259981E-033
  -8.2200000000000006         -7.0459007817395711E-033
  -8.1600000000000001         -6.9970170622430269E-033
  -8.1000000000000014         -6.6538670454597458E-033
  -8.0400000000000009         -5.9594639276409398E-033
  -7.9800000000000004         -4.8573944272682276E-033
  -7.9200000000000017         -3.2941958677912524E-033
  -7.8599999999999994         -1.2221506368454194E-033
  -7.8000000000000007          1.3975094640232203E-033
  -7.7400000000000020          4.5910246298412764E-033
  -7.6799999999999997          8.3682219681663298E-033
  -7.6200000000000010          1.2718390496110890E-032
  -7.5600000000000023          1.7606034695312353E-032
  -7.5000000000000000          2.2966630709182514E-032
  -7.4400000000000013          2.8702587183656973E-032
  -7.3799999999999990          3.4679543145011343E-032
  -7.3200000000000003          4.0723284100552305E-032
  -7.2600000000000016          4.6617504145225271E-032
  -7.1999999999999993          5.2102655408301663E-032
  -7.1400000000000006          5.6876193527067879E-032
  -7.0800000000000018          6.0594512999382644E-032
  -7.0199999999999996          6.2876838253191063E-032
  -6.9600000000000009          6.3311332082966642E-032
  -6.9000000000000021          6.1463737551152363E-032
  -6.8399999999999999          5.6888652954845446E-032
  -6.7800000000000011          4.9143682729206788E-032
  -6.7199999999999989          3.7806468879633454E-032
  -6.6600000000000001          2.2494641336002320E-032
  -6.6000000000000014          2.8885459238822962E-033
  -6.5399999999999991         -2.1243542531741097E-032
  -6.4800000000000004         -5.0018063275569866E-032
  -6.4200000000000017         -8.3407246783594205E-032
  -6.3599999999999994         -1.2120940348646695E-031
  -6.3000000000000007         -1.6301915777016660E-031
  -6.2400000000000020         -2.0819892567184397E-031
  -6.1799999999999997         -2.5585274325575226E-031
  -6.1200000000000010         -3.0480398055655648E-031
  -6.0600000000000023         -3.5357823426090966E-031
  -6.0000000000000000         -4.0039361274105877E-031
  -5.9400000000000013         -4.4315967137644708E-031
  -5.8799999999999990         -4.7948717394971248E-031
  -5.8200000000000003         -5.0671016885590571E-031
  -5.7600000000000016         -5.2192255353700871E-031
  -5.6999999999999993         -5.2203019552859513E-031
  -5.6400000000000006         -5.0382054281720904E-031
  -5.5800000000000018         -4.6404985681451301E-031
  -5.5199999999999996         -3.9954981046976593E-031
  -5.4600000000000009         -3.0735223812635654E-031
  -5.4000000000000021         -1.8483252965297234E-031
  -5.3399999999999999         -2.9869437498577814E-032
  -5.2800000000000011          1.5898007825423342E-031
  -5.2200000000000024          3.8229473540659114E-031
  -5.1600000000000001          6.3959501445471322E-031
  -5.1000000000000014          9.2914682308607080E-031
  -5.0399999999999991          1.2477691099314145E-030
  -4.9800000000000004          1.5906522011186814E-030
  -4.9200000000000017          1.9511946698407713E-030
  -4.8599999999999994          2.3208693813084823E-030
  -4.8000000000000007          2.6891268237092731E-030
  -4.7400000000000020          3.0433466913762109E-030
  -4.6799999999999997          3.3688494349738857E-030
  -4.6200000000000010          3.6489779379209022E-030
  -4.5600000000000023          3.8652594209138500E-030
  -4.5000000000000000          3.9976588067228875E-030
  -4.4400000000000013          4.0249315388537807E-030
  -4.3799999999999990          3.9250832984112310E-030
  -4.3200000000000003          3.6759425368672987E-030
  -4.2600000000000016          3.2558469019699005E-030
  -4.1999999999999993          2.6444438776064794E-030
  -4.1400000000000006          1.8236017855684869E-030
  -4.0800000000000018          7.7841978167233839E-031
  -4.0199999999999996         -5.0167375768435606E-031
  -3.9600000000000009         -2.0217552268487220E-030
  -3.9000000000000021         -3.7801962560438431E-030
  -3.8399999999999999         -5.7674380152772951E-030
  -3.7800000000000011         -7.9647947376670359E-030
  -3.7200000000000024         -1.0343312964749105E-029
  -3.6600000000000001         -1.2862747688980175E-029
  -3.6000000000000014         -1.5470705058384890E-029
  -3.5399999999999991         -1.8101999739150478E-029
  -3.4800000000000004         -2.0678296526891065E-029
  -3.4200000000000017         -2.3108097564844579E-029
  -3.3599999999999994         -2.5287124501291960E-029
  -3.3000000000000007         -2.7099179439688227E-029
  -3.2400000000000020         -2.8417522649971016E-029
  -3.1799999999999997         -2.9106820848478699E-029
  -3.1200000000000010         -2.9025726357903294E-029
  -3.0600000000000023         -2.8030089346018794E-029
  -3.0000000000000000         -2.5976853741362622E-029
  -2.9400000000000013         -2.2728624472600053E-029
  -2.8800000000000026         -1.8158862286688716E-029
  -2.8200000000000003         -1.2157709083938527E-029
  -2.7600000000000016         -4.6383565414742092E-030
  -2.6999999999999993          4.4561511780258588E-030
  -2.6400000000000006          1.5145778734994206E-029
  -2.5800000000000018          2.7406196394148906E-029
  -2.5199999999999996          4.1161502148715842E-029
  -2.4600000000000009          5.6277167624884980E-029
  -2.4000000000000021          7.2553474196228032E-029
  -2.3399999999999999          8.9719702900862885E-029
  -2.2800000000000011          1.0742939601264723E-028
  -2.2200000000000024          1.2525699393958962E-028
  -2.1600000000000001          1.4269623427735700E-028
  -2.1000000000000014          1.5916051956511782E-028
  -2.0399999999999991          1.7398578870808589E-028
  -1.9800000000000004          1.8643609806698542E-028
  -1.9200000000000017          1.9571224264868750E-028
  -1.8599999999999994          2.0096367127910418E-028
  -1.8000000000000007          2.0130403702697821E-028
  -1.7400000000000020          1.9583034572075558E-028
  -1.6799999999999997          1.8364599875585979E-028
  -1.6200000000000010          1.6388755332548697E-028
  -1.5600000000000023          1.3575521968548619E-028
  -1.5000000000000000          9.8546666157164736E-029
  -1.4400000000000013          5.1694056015715107E-029
  -1.3800000000000026         -5.1964197538919994E-030
  -1.3200000000000003         -7.2303281178669145E-029
  -1.2600000000000016         -1.4954728248747359E-028
  -1.1999999999999993         -2.3654907338714644E-028
  -1.1400000000000006         -3.3258781383170737E-028
  -1.0800000000000018         -4.3656252167994247E-028
  -1.0199999999999996         -5.4695712869307247E-028
 -0.96000000000000085         -6.6181126314153081E-028
 -0.90000000000000213         -7.7869823735353970E-028
 -0.83999999999999986         -8.9471235022429231E-028
 -0.78000000000000114         -1.0064667984706007E-027
 -0.72000000000000242         -1.1101049807847524E-027
 -0.66000000000000014         -1.2013255373703517E-027
 -0.60000000000000142         -1.2754250116255017E-027
 -0.53999999999999915         -1.3273569157503601E-027
 -0.48000000000000043         -1.3518116005231456E-027
 -0.42000000000000171         -1.3433150322424822E-027
 -0.35999999999999943         -1.2963497873887154E-027
 -0.30000000000000071         -1.2054959612140839E-027
 -0.24000000000000199         -1.0655937751267972E-027
 -0.17999999999999972         -8.7192562360572576E-028
 -0.12000000000000099         -6.2041676982303246E-028
  -6.0000000000002274E-002    -3.0785204442679582E-028
   0.0000000000000000          6.7895009165566151E-029
   5.9999999999998721E-002     5.0762383353629675E-028
  0.11999999999999744          1.0105639579011261E-027
  0.17999999999999972          1.5741341004983704E-027
  0.23999999999999844          2.1937093227916732E-027
  0.30000000000000071          2.8624028133662861E-027
  0.35999999999999943          3.5708728559673982E-027
  0.41999999999999815          4.3071590829481508E-027
  0.48000000000000043          5.0565636013485224E-027
  0.53999999999999915          5.8015820844400707E-027
  0.59999999999999787          6.5218944749763179E-027
  0.66000000000000014          7.1944289988539396E-027
  0.71999999999999886          7.7935074665756206E-027
  0.77999999999999758          8.2910784868209451E-027
  0.83999999999999986          8.6570510215612672E-027
  0.89999999999999858          8.8597301470329934E-027
  0.96000000000000085          8.8663707648736779E-027
   1.0199999999999996          8.6438381731970750E-027
   1.0799999999999983          8.1593875870210457E-027
   1.1400000000000006          7.3815616214532078E-027
   1.1999999999999993          6.2811952420639713E-027
   1.2599999999999980          4.8325205075481611E-027
   1.3200000000000003          3.0143671559361538E-027
   1.3799999999999990          8.1143860577884496E-028
   1.4399999999999977         -1.7843608467321665E-027
   1.5000000000000000         -4.7725660450024973E-027
   1.5599999999999987         -8.1427829644187891E-027
   1.6199999999999974         -1.1873361303095770E-026
   1.6799999999999997         -1.5930126333372613E-026
   1.7399999999999984         -2.0265225173320847E-026
   1.8000000000000007         -2.4816125862302079E-026
   1.8599999999999994         -2.9504815138219364E-026
   1.9199999999999982         -3.4237267231334369E-026
   1.9800000000000004         -3.8903200795123731E-026
   2.0399999999999991         -4.3376198181145700E-026
   2.0999999999999979         -4.7514243493089525E-026
   2.1600000000000001         -5.1160717692345874E-026
   2.2199999999999989         -5.4145892759530112E-026
   2.2799999999999976         -5.6288993099499731E-026
   2.3399999999999999         -5.7400827072168354E-026
   2.3999999999999986         -5.7287037711967062E-026
   2.4599999999999973         -5.5751962794041878E-026
   2.5199999999999996         -5.2603139708192140E-026
   2.5799999999999983         -4.7656427836665845E-026
   2.6400000000000006         -4.0741693132511436E-026
   2.6999999999999993         -3.1709062384063599E-026
   2.7599999999999980         -2.0435643019986518E-026
   2.8200000000000003         -6.8326242186505597E-027
   2.8799999999999990          9.1473247601310946E-027
   2.9399999999999977          2.7502517667770991E-026
   3.0000000000000000          4.8174717902233955E-026
   3.0599999999999987          7.1041787026499833E-026
   3.1199999999999974          9.5910692605637637E-026
   3.1799999999999997          1.2251115263825166E-025
   3.2399999999999984          1.5049008031747118E-025
   3.3000000000000007          1.7940713834801009E-025
   3.3599999999999994          2.0873160164651614E-025
   3.4199999999999982          2.3784090517967627E-025
   3.4800000000000004          2.6602104689570450E-025
   3.5399999999999991          2.9246917465940605E-025
   3.5999999999999979          3.1629856913065792E-025
   3.6600000000000001          3.3654632033252864E-025
   3.7199999999999989          3.5218391371895142E-025
   3.7799999999999976          3.6213078182908100E-025
   3.8399999999999999          3.6527126125061056E-025
   3.8999999999999986          3.6047457085093361E-025
   3.9599999999999973          3.4661839432920585E-025
   4.0199999999999996          3.2261546940837268E-025
   4.0799999999999983          2.8744353802171639E-025
   4.1400000000000006          2.4017811634475632E-025
   4.1999999999999993          1.8002788464950958E-025
   4.2599999999999980          1.0637234689173567E-025
   4.3200000000000003          1.8801152635864992E-026
   4.3799999999999990         -8.2845554227644355E-026
   4.4399999999999977         -1.9843652073978423E-025
   4.5000000000000000         -3.2750908316163393E-025
   4.5599999999999987         -4.6923076303773876E-025
   4.6199999999999974         -6.2236297070144617E-025
   4.6799999999999997         -7.8522895088223213E-025
   4.7399999999999984         -9.5568614897175348E-025
   4.7999999999999972         -1.1311054445483618E-024
   4.8599999999999994         -1.3083576331198590E-024
   4.9199999999999982         -1.4838089729889498E-024
   4.9800000000000004         -1.6533269417313947E-024
   5.0399999999999991         -1.8122984672069167E-024
   5.0999999999999979         -1.9556598696947460E-024
   5.1600000000000001         -2.0779421668956426E-024
   5.2199999999999989         -2.1733301687027191E-024
   5.2799999999999976         -2.2357390358998420E-024
   5.3399999999999999         -2.2589063022373474E-024
   5.3999999999999986         -2.2365010167964069E-024
   5.4599999999999973         -2.1622495980497831E-024
   5.5199999999999996         -2.0300790807293570E-024
   5.5799999999999983         -1.8342745522984859E-024
   5.6400000000000006         -1.5696523163668568E-024
   5.6999999999999993         -1.2317465483360333E-024
   5.7599999999999980         -8.1700445951760677E-025
   5.8200000000000003         -3.2299212501374994E-025
   5.8799999999999990          2.5139646317837951E-025
   5.9399999999999977          9.0572925786212435E-025
   6.0000000000000000          1.6378273698435738E-024
   6.0599999999999987          2.4435662069753010E-024
   6.1199999999999974          3.3166886687073136E-024
   6.1799999999999997          4.2486367067585330E-024
   6.2399999999999984          5.2284098322678666E-024
   6.2999999999999972          6.2424498316275213E-024
   6.3599999999999994          7.2745705764274813E-024
   6.4199999999999982          8.3059234223081432E-024
   6.4800000000000004          9.3150201422911161E-024
   6.5399999999999991          1.0277807723793301E-023
   6.5999999999999979          1.1167812349830075E-023
   6.6600000000000001          1.1956343921889185E-023
   6.7199999999999989          1.2612781461800859E-023
   6.7799999999999976          1.3104930234950525E-023
   6.8399999999999999          1.3399462833164429E-023
   6.8999999999999986          1.3462440422023164E-023
   6.9599999999999973          1.3259917262926637E-023
   7.0199999999999996          1.2758623446815694E-023
   7.0799999999999983          1.1926729212229635E-023
   7.1400000000000006          1.0734679294536671E-023
   7.1999999999999993          9.1560913314582111E-024
   7.2599999999999980          7.1687137700974101E-024
   7.3200000000000003          4.7554255721617145E-024
   7.3799999999999990          1.9052617269334967E-024
   7.4399999999999977         -1.3855399075058054E-024
   7.5000000000000000         -5.1124978171029545E-024
   7.5599999999999987         -9.2618849992768840E-024
   7.6199999999999974         -1.3809764523589832E-023
   7.6799999999999997         -1.8721103091426513E-023
   7.7399999999999984         -2.3948994813908895E-023
   7.7999999999999972         -2.9434003343087177E-023
   7.8599999999999994         -3.5103671856677446E-023
   7.9199999999999982         -4.0872225464862077E-023
   7.9800000000000004         -4.6640484820210559E-023
   8.0399999999999991         -5.2296044511180550E-023
   8.1000000000000014         -5.7713701584709507E-023
   8.1599999999999966         -6.2756225155442649E-023
   8.2199999999999989         -6.7275422212394832E-023
   8.2800000000000011         -7.1113558325879034E-023
   8.3399999999999963         -7.4105155869181513E-023
   8.3999999999999986         -7.6079160082087625E-023
   8.4600000000000009         -7.6861484517710138E-023
   8.5199999999999960         -7.6277920827259561E-023
   8.5799999999999983         -7.4157467820581921E-023
   8.6400000000000006         -7.0335960196149409E-023