  -24.000000000000000          0.0000000000000000     
  -23.940000000000001          0.0000000000000000     
  -23.879999999999999          0.0000000000000000     
  -23.820000000000000          0.0000000000000000     
  -23.760000000000002          0.0000000000000000     
  -23.699999999999999          0.0000000000000000     
  -23.640000000000001          0.0000000000000000     
  -23.579999999999998          2.3320351972695346E-034
  -23.520000000000000          3.4364174110053532E-033
  -23.460000000000001          2.6929793692085268E-032
  -23.399999999999999          1.4905201262041989E-031
  -23.340000000000000          6.5320527479951175E-031
  -23.280000000000001          2.4100908310593807E-030
  -23.219999999999999          7.7765660506154319E-030
  -23.160000000000000          2.2512961500047663E-029
  -23.100000000000001          5.9553162734009581E-029
  -23.039999999999999          1.4591864138560592E-028
  -22.980000000000000          3.3464444038853844E-028
  -22.920000000000002          7.2425069902384989E-028
  -22.859999999999999          1.4889658702234645E-027
  -22.800000000000001          2.9234665555913557E-027
  -22.739999999999998          5.5061241833338152E-027
  -22.680000000000000          9.9844290215914733E-027
  -22.620000000000001          1.7484970464974514E-026
  -22.559999999999999          2.9647898602932706E-026
  -22.500000000000000          4.8781507178421859E-026
  -22.440000000000001          7.8026577897911960E-026
  -22.379999999999999          1.2151139903956532E-025
  -22.320000000000000          1.8446778372704034E-025
  -22.260000000000002          2.7326520363531392E-025
  -22.199999999999999          3.9530564851150622E-025
  -22.140000000000001          5.5870591274999930E-025
  -22.079999999999998          7.7167896212795672E-025
  -22.020000000000000          1.0415151211887330E-024
  -21.960000000000001          1.3730537075415931E-024
  -21.899999999999999          1.7665391544866680E-024
  -21.840000000000000          2.2147663634156981E-024
  -21.780000000000001          2.6994486612263516E-024
  -21.719999999999999          3.1867839463657179E-024
  -21.660000000000000          3.6222711239739652E-024
  -21.600000000000001          3.9249102807351841E-024
  -21.539999999999999          3.9810413107219606E-024
  -21.480000000000000          3.6382335388160572E-024
  -21.420000000000002          2.6997720030248412E-024
  -21.359999999999999          9.2050108235906984E-025
  -21.300000000000001         -1.9950512904347107E-024
  -21.240000000000002         -6.3911422441806910E-024
  -21.180000000000000         -1.2654592487510690E-023
  -21.120000000000001         -2.1202496194675659E-023
  -21.059999999999999         -3.2462351030479776E-023
  -21.000000000000000         -4.6843215029024271E-023
  -20.940000000000001         -6.4696587464930134E-023
  -20.879999999999999         -8.6266074591666868E-023
  -20.820000000000000         -1.1162517506212732E-022
  -20.760000000000002         -1.4060345671380909E-022
  -20.699999999999999         -1.7270181088245370E-022
  -20.640000000000001         -2.0699926427895943E-022
  -20.579999999999998         -2.4205403979232105E-022
  -20.520000000000000         -2.7580407989581102E-022
  -20.460000000000001         -3.0547305167861880E-022
  -20.399999999999999         -3.2748979994993296E-022
  -20.340000000000000         -3.3743109312451951E-022
  -20.280000000000001         -3.2999864061608649E-022
  -20.219999999999999         -2.9904309469923585E-022
  -20.160000000000000         -2.3764875202156467E-022
  -20.100000000000001         -1.3829265498372292E-022
  -20.039999999999999          6.9073567240158120E-024
  -19.980000000000000          2.0584325969047478E-022
  -19.920000000000002          4.6595460183388015E-022
  -19.859999999999999          7.9364659985570887E-022
  -19.800000000000001          1.1935836931974448E-021
  -19.740000000000002          1.6678628092948889E-021
  -19.680000000000000          2.2150752079877616E-021
  -19.620000000000001          2.8292736028111206E-021
  -19.560000000000002          3.4988773277803780E-021
  -19.500000000000000          4.2055489507431551E-021
  -19.440000000000001          4.9230980714072458E-021
  -19.379999999999999          5.6164716679843086E-021
  -19.320000000000000          6.2409089472831796E-021
  -19.259999999999998          6.7413487795053055E-021
  -19.199999999999999          7.0521782076899497E-021
  -19.140000000000001          7.0974376783467674E-021
  -19.079999999999998          6.7915859679491391E-021
  -19.020000000000000          6.0409326367041044E-021
  -18.960000000000001          4.7458493804115648E-021
  -18.899999999999999          2.8038593841975863E-021
  -18.840000000000000          1.1367379373498798E-022
  -18.780000000000001         -3.4197534002966325E-021
  -18.719999999999999         -7.8791430946476323E-021
  -18.660000000000000         -1.3327776265988723E-020
  -18.600000000000001         -1.9801412786520008E-020
  -18.539999999999999         -2.7299371895499701E-020
  -18.480000000000000         -3.5774942849157148E-020
  -18.420000000000002         -4.5125346390409925E-020
  -18.359999999999999         -5.5181613670959486E-020
  -18.300000000000001         -6.5698725101867795E-020
  -18.240000000000002         -7.6346494689996962E-020
  -18.180000000000000         -8.6701750978387002E-020
  -18.120000000000001         -9.6242382925144024E-020
  -18.060000000000002         -1.0434389176831868E-019
  -18.000000000000000         -1.1027923638794192E-019
  -17.940000000000001         -1.1322252730508900E-019
  -17.879999999999999         -1.1225744448133689E-019
  -17.820000000000000         -1.0639092932372386E-019
  -17.759999999999998         -9.4572886770784968E-020
  -17.699999999999999         -7.5722316619559310E-020
  -17.640000000000001         -4.8760421404641719E-020
  -17.579999999999998         -1.2650792384035048E-020
  -17.520000000000000          3.3553284089511298E-020
  -17.460000000000001          9.0654476457792406E-020
  -17.399999999999999          1.5925055042102408E-019
  -17.340000000000000          2.3966805919904174E-019
  -17.280000000000001          3.3189134810416599E-019
  -17.219999999999999          4.3548864675895793E-019
  -17.160000000000000          5.4953710645767258E-019
  -17.100000000000001          6.7254875360758319E-019
  -17.039999999999999          8.0240060875687503E-019
  -16.980000000000000          9.3627135297492715E-019
  -16.920000000000002          1.0705879556884190E-018
  -16.859999999999999          1.2009862044532696E-018
  -16.800000000000001          1.3222886516503143E-018
  -16.740000000000002          1.4285033952217824E-018
  -16.680000000000000          1.5128481369436534E-018
  -16.620000000000001          1.5678032888948307E-018
  -16.560000000000002          1.5851967136805958E-018
  -16.500000000000000          1.5563245366778154E-018
  -16.440000000000001          1.4721095367068077E-018
  -16.379999999999999          1.3232997602109064E-018
  -16.320000000000000          1.1007073654105334E-018
  -16.260000000000002          7.9548998956777270E-019
  -16.199999999999999          3.9946895550069856E-019
  -16.140000000000001         -9.4511228414142569E-020
  -16.079999999999998         -6.9219225644582752E-019
  -16.020000000000000         -1.3974824265163399E-018
  -15.960000000000001         -2.2120158714413660E-018
  -15.900000000000000         -3.1346966464455884E-018
  -15.840000000000000         -4.1612441674177921E-018
  -15.780000000000001         -5.2837412661731132E-018
  -15.720000000000001         -6.4902118574066690E-018
  -15.660000000000000         -7.7642263270889627E-018
  -15.600000000000000         -9.0845656920734826E-018
  -15.540000000000001         -1.0424950010070249E-017
  -15.480000000000000         -1.1753855757267906E-017
  -15.420000000000000         -1.3034431440398660E-017
  -15.359999999999999         -1.4224538976595811E-017
  -15.300000000000001         -1.5276929181218374E-017
  -15.240000000000000         -1.6139568609078377E-017
  -15.180000000000000         -1.6756135436915333E-017
  -15.120000000000001         -1.7066696831951582E-017
  -15.060000000000000         -1.7008570735370429E-017
  -15.000000000000000         -1.6517384072798346E-017
  -14.940000000000000         -1.5528335044188636E-017
  -14.880000000000001         -1.3977643301529978E-017
  -14.820000000000000         -1.1804201906816536E-017
  -14.760000000000000         -8.9514074881835679E-018
  -14.700000000000001         -5.3691522646994536E-018
  -14.640000000000001         -1.0159652164988248E-018
  -14.580000000000000          4.1387357528268769E-018
  -14.520000000000000          1.0112303416305847E-017
  -14.460000000000001          1.6906460525949589E-017
  -14.400000000000000          2.4504938813228991E-017
  -14.340000000000000          3.2871105114403483E-017
  -14.280000000000001          4.1945778010558431E-017
  -14.220000000000001          5.1645109988880171E-017
  -14.160000000000000          6.1858771099176286E-017
  -14.100000000000000          7.2448392569202310E-017
  -14.040000000000001          8.3246378001112460E-017
  -13.980000000000000          9.4055165703912014E-017
  -13.920000000000000          1.0464695111864838E-016
  -13.860000000000001          1.1476403554214831E-016
  -13.800000000000001          1.2411977139321467E-016
  -13.740000000000000          1.3240023377216147E-016
  -13.680000000000000          1.3926661677711006E-016
  -13.620000000000001          1.4435848972334763E-016
  -13.560000000000000          1.4729782563453035E-016
  -13.500000000000000          1.4769401332957752E-016
  -13.440000000000001          1.4514963185870462E-016
  -13.380000000000001          1.3926724853979743E-016
  -13.320000000000000          1.2965704888995668E-016
  -13.260000000000000          1.1594532803214431E-016
  -13.200000000000001          9.7783793896915769E-017
  -13.140000000000001          7.4859649634431268E-017
  -13.080000000000000          4.6906368105543283E-017
  -13.020000000000000          1.3714907613188311E-017
  -12.960000000000001         -2.4854546123174309E-017
  -12.900000000000000         -6.8860540695785377E-017
  -12.840000000000000         -1.1826831548347111E-016
  -12.780000000000001         -1.7293779176158134E-016
  -12.720000000000001         -2.3261196822718292E-016
  -12.660000000000000         -2.9690576135503944E-016
  -12.600000000000000         -3.6529575900775854E-016
  -12.540000000000001         -4.3711114698079602E-016
  -12.480000000000000         -5.1152591351594398E-016
  -12.420000000000000         -5.8755275912297358E-016
  -12.360000000000001         -6.6403937688496800E-016
  -12.300000000000001         -7.3966662173143014E-016
  -12.240000000000000         -8.1294985768795681E-016
  -12.180000000000000         -8.8224291808183726E-016
  -12.120000000000001         -9.4574575569267905E-016
  -12.060000000000000         -1.0015155030175742E-015
  -12.000000000000000         -1.0474814953848483E-015
  -11.940000000000001         -1.0814644220763176E-015
  -11.880000000000001         -1.1012000373388858E-015
  -11.820000000000000         -1.1043667131377629E-015
  -11.760000000000000         -1.0886186123408680E-015
  -11.700000000000001         -1.0516224487546966E-015
  -11.640000000000001         -9.9109952249367132E-016
  -11.580000000000000         -9.0487158269655116E-016
  -11.520000000000000         -7.9091122125799732E-016
  -11.460000000000001         -6.4739621112106514E-016
  -11.400000000000000         -4.7276686724206118E-016
  -11.340000000000000         -2.6578650034146531E-016
  -11.280000000000001         -2.5603747787731668E-017
  -11.220000000000001          2.4818325880981422E-016
  -11.160000000000000          5.5546265288951987E-016
  -11.100000000000000          8.9554524835187886E-016
  -11.040000000000001          1.2671030304455576E-015
  -10.980000000000000          1.6681102136795432E-015
  -10.920000000000000          2.0957878287140554E-015
  -10.860000000000001          2.5465573124738289E-015
  -10.800000000000001          3.0159981676722036E-015
  -10.740000000000000          3.4988165994489043E-015
  -10.680000000000000          3.9888255456262370E-015
  -10.620000000000001          4.4789341772356022E-015
  -10.560000000000000          4.9611557792205742E-015
  -10.500000000000000          5.4266263759345251E-015
  -10.440000000000001          5.8656452689307640E-015
  -10.380000000000001          6.2677304708565070E-015
  -10.320000000000000          6.6216959839720940E-015
  -10.260000000000000          6.9157488187323611E-015
  -10.200000000000001          7.1376079118565968E-015
  -10.140000000000001          7.2746451066794621E-015
  -10.080000000000000          7.3140489493619527E-015
  -10.020000000000001          7.2430088947784637E-015
  -9.9600000000000009          7.0489207989487616E-015
  -9.9000000000000004          6.7196168901348730E-015
  -9.8399999999999999          6.2436101091492803E-015
  -9.7800000000000011          5.6103544371838661E-015
  -9.7200000000000006          4.8105261411915117E-015
  -9.6600000000000001          3.8363095402359446E-015
  -9.6000000000000014          2.6816959839478056E-015
  -9.5400000000000009          1.3427834701684954E-015
  -9.4800000000000004         -1.8192458722143898E-016
  -9.4199999999999999         -1.8912199241653086E-015
  -9.3600000000000012         -3.7809114508332129E-015
  -9.3000000000000007         -5.8435528762888728E-015
  -9.2400000000000002         -8.0681942935699702E-015
  -9.1799999999999997         -1.0440174513834507E-014
  -9.1200000000000010         -1.2940928838408214E-014
  -9.0600000000000005         -1.5547856126015565E-014
  -9.0000000000000000         -1.8234224032613146E-014
  -8.9400000000000013         -2.0969127569510612E-014
  -8.8800000000000008         -2.3717516414616641E-014
  -8.8200000000000003         -2.6440273774784077E-014
  -8.7599999999999998         -2.9094380806276530E-014
  -8.7000000000000011         -3.1633151726660012E-014
  -8.6400000000000006         -3.4006538004682707E-014
  -8.5800000000000001         -3.6161524947653416E-014
  -8.5200000000000014         -3.8042611879494225E-014
  -8.4600000000000009         -3.9592368733462285E-014
  -8.4000000000000004         -4.0752076830253309E-014
  -8.3399999999999999         -4.1462469828275890E-014
  -8.2800000000000011         -4.1664511203275506E-014
  -8.2200000000000006         -4.1300290679813787E-014
  -8.1600000000000001         -4.0313962147168105E-014
  -8.1000000000000014         -3.8652744574784935E-014
  -8.0400000000000009         -3.6267971883953265E-014
  -7.9800000000000004         -3.3116186494237255E-014
  -7.9200000000000017         -2.9160261323412261E-014
  -7.8599999999999994         -2.4370521575462629E-014
  -7.8000000000000007         -1.8725876223908055E-014
  -7.7400000000000020         -1.2214930542375612E-014
  -7.6799999999999997         -4.8370518357058724E-015
  -7.6200000000000010          3.3965833931569849E-015
  -7.5600000000000023          1.2462068046104179E-014
  -7.5000000000000000          2.2321897170093588E-014
  -7.4400000000000013          3.2924205707788225E-014
  -7.3799999999999990          4.4202162821300171E-014
  -7.3200000000000003          5.6073490519234910E-014
  -7.2600000000000016          6.8440162329887537E-014
  -7.1999999999999993          8.1188275898503048E-014
  -7.1400000000000006          9.4188120262604915E-014
  -7.0800000000000018          1.0729449798457165E-013
  -7.0199999999999996          1.2034722031334215E-013
  -6.9600000000000009          1.3317183437960874E-013
  -6.9000000000000021          1.4558066451785573E-013
  -6.8399999999999999          1.5737405103418358E-013
  -6.7800000000000011          1.6834187408741298E-013
  -6.7199999999999989          1.7826528439763153E-013
  -6.6600000000000001          1.8691875681653028E-013
  -6.6000000000000014          1.9407234579065529E-013
  -6.5399999999999991          1.9949415153721532E-013
  -6.4800000000000004          2.0295311977701707E-013
  -6.4200000000000017          2.0422189733842539E-013
  -6.3599999999999994          2.0307999704308491E-013
  -6.3000000000000007          1.9931707016920429E-013
  -6.2400000000000020          1.9273631337655516E-013
  -6.1799999999999997          1.8315803642280948E-013
  -6.1200000000000010          1.7042315724537272E-013
  -6.0600000000000023          1.5439692175724124E-013
  -6.0000000000000000          1.3497249069379266E-013
  -5.9400000000000013          1.1207444533996118E-013
  -5.8799999999999990          8.5662382666578376E-014
  -5.8200000000000003          5.5734127838122127E-014
  -5.7600000000000016          2.2328897506654620E-014
  -5.6999999999999993         -1.4469779085509274E-014
  -5.6400000000000006         -5.4531484732765177E-014
  -5.5800000000000018         -9.7676626561686264E-014
  -5.5199999999999996         -1.4367450042871024E-013
  -5.4600000000000009         -1.9224211604641551E-013
  -5.4000000000000021         -2.4304285589729509E-013
  -5.3399999999999999         -2.9568648058146026E-013
  -5.2800000000000011         -3.4972897137157454E-013
  -5.2200000000000024         -4.0467346785721026E-013
  -5.1600000000000001         -4.5997177237860610E-013
  -5.1000000000000014         -5.1502628306429441E-013
  -5.0399999999999991         -5.6919299059285055E-013
  -4.9800000000000004         -6.2178487179104994E-013
  -4.9200000000000017         -6.7207637007813190E-013
  -4.8599999999999994         -7.1930819055500283E-013
  -4.8000000000000007         -7.6269344390306560E-013
  -4.7400000000000020         -8.0142384741173049E-013
  -4.6799999999999997         -8.3467705018324024E-013
  -4.6200000000000010         -8.6162473258219167E-013
  -4.5600000000000023         -8.8144097789527349E-013
  -4.5000000000000000         -8.9331162476802884E-013
  -4.4400000000000013         -8.9644394505740654E-013
  -4.3799999999999990         -8.9007674255715893E-013
  -4.3200000000000003         -8.7349137019244732E-013
  -4.2600000000000016         -8.4602246736988204E-013
  -4.1999999999999993         -8.0706894613019253E-013
  -4.1400000000000006         -7.5610557346743967E-013
  -4.0800000000000018         -6.9269455361756208E-013
  -4.0199999999999996         -6.1649610436154406E-013
  -3.9600000000000009         -5.2727997147734709E-013
  -3.9000000000000021         -4.2493568204933308E-013
  -3.8399999999999999         -3.0948287842766163E-013
  -3.7800000000000011         -1.8108071305973175E-013
  -3.7200000000000024         -4.0036241869794185E-014
  -3.6600000000000001          1.1318765648052157E-013
  -3.6000000000000014          2.7796592472380240E-013
  -3.5399999999999991          4.5350601243305580E-013
  -3.4800000000000004          6.3884361007351373E-013
  -3.4200000000000017          8.3284115051751878E-013
  -3.3599999999999994          1.0341861465873891E-012
  -3.3000000000000007          1.2413929804532214E-012
  -3.2400000000000020          1.4528052703989355E-012
  -3.1799999999999997          1.6666013584381387E-012
  -3.1200000000000010          1.8808007956192962E-012
  -3.0600000000000023          2.0932743322750596E-012
  -3.0000000000000000          2.3017539495189870E-012
  -2.9400000000000013          2.5038475581011140E-012
  -2.8800000000000026          2.6970533487260332E-012
  -2.8200000000000003          2.8787785702780200E-012
  -2.7600000000000016          3.0463590480533348E-012
  -2.6999999999999993          3.1970807574464685E-012
  -2.6400000000000006          3.3282042602687016E-012
  -2.5800000000000018          3.4369894862734167E-012
  -2.5199999999999996          3.5207227779015177E-012
  -2.4600000000000009          3.5767460590029258E-012
  -2.4000000000000021          3.6024865348981942E-012
  -2.3399999999999999          3.5954864422579049E-012
  -2.2800000000000011          3.5534357107856567E-012
  -2.2200000000000024          3.4742027715790531E-012
  -2.1600000000000001          3.3558678879225591E-012
  -2.1000000000000014          3.1967527520483367E-012
  -2.0399999999999991          2.9954538281286922E-012
  -1.9800000000000004          2.7508715478977254E-012
  -1.9200000000000017          2.4622400613053136E-012
  -1.8599999999999994          2.1291551085708580E-012
  -1.8000000000000007          1.7515990002839057E-012
  -1.7400000000000020          1.3299644806351314E-012
  -1.6799999999999997          8.6507610144317446E-013
  -1.6200000000000010          3.5820765254685054E-013
  -1.5600000000000023         -1.8890285810684475E-013
  -1.5000000000000000         -7.7404242401832886E-013
  -1.4400000000000013         -1.3945136362978711E-012
  -1.3800000000000026         -2.0471340898970882E-012
  -1.3200000000000003         -2.7282346321725067E-012
  -1.2600000000000016         -3.4336662067674066E-012
  -1.1999999999999993         -4.1588086856372524E-012
  -1.1400000000000006         -4.8985848924129228E-012
  -1.0800000000000018         -5.6474799344606873E-012
  -1.0199999999999996         -6.3995656949250812E-012
 -0.96000000000000085         -7.1485276986192594E-012
 -0.90000000000000213         -7.8876999006936022E-012
 -0.83999999999999986         -8.6101014693818098E-012
 -0.78000000000000114         -9.3084783112689805E-012
 -0.72000000000000242         -9.9753499217690493E-012
 -0.66000000000000014         -1.0603059429397879E-011
 -0.60000000000000142         -1.1183827485871273E-011
 -0.53999999999999915         -1.1709809144232699E-011
 -0.48000000000000043         -1.2173154885480000E-011
 -0.42000000000000171         -1.2566072742140876E-011
 -0.35999999999999943         -1.2880893148521249E-011
 -0.30000000000000071         -1.3110138041933951E-011
 -0.24000000000000199         -1.3246586409883706E-011
 -0.17999999999999972         -1.3283347556464539E-011
 -0.12000000000000099         -1.3213925818158892E-011
  -6.0000000000002274E-002    -1.3032293211851283E-011
   0.0000000000000000         -1.2732961273246169E-011
   5.9999999999998721E-002    -1.2311044340258949E-011
  0.11999999999999744         -1.1762329734716262E-011
  0.17999999999999972         -1.1083338767410349E-011
  0.23999999999999844         -1.0271393692550861E-011
  0.30000000000000071         -9.3246748930778284E-012
  0.35999999999999943         -8.2422684113085700E-012
  0.41999999999999815         -7.0242315426430414E-012
  0.48000000000000043         -5.6716294602021906E-012
  0.53999999999999915         -4.1865814350273844E-012
  0.59999999999999787         -2.5722939362886590E-012
  0.66000000000000014         -8.3309564631035489E-013
  0.71999999999999886          1.0255456002384179E-012
  0.77999999999999758          2.9969911539142275E-012
  0.83999999999999986          5.0734323871467207E-012
  0.89999999999999858          7.2458789112940478E-012
  0.96000000000000085          9.5041711509852805E-012
   1.0199999999999996          1.1836980047492537E-011
   1.0799999999999983          1.4231831490389088E-011
   1.1400000000000006          1.6675138214401398E-011
   1.1999999999999993          1.9152224578469055E-011
   1.2599999999999980          2.1647378869200557E-011
   1.3200000000000003          2.4143902411188436E-011
   1.3799999999999990          2.6624170143965604E-011
   1.4399999999999977          2.9069700338734943E-011
   1.5000000000000000          3.1461237212617041E-011
   1.5599999999999987          3.3778826819883574E-011
   1.6199999999999974          3.6001924169321665E-011
   1.6799999999999997          3.8109487066482166E-011
   1.7399999999999984          4.0080093056918842E-011
   1.8000000000000007          4.1892056823624668E-011
   1.8599999999999994          4.3523554474160663E-011
   1.9199999999999982          4.4952756325957220E-011
   1.9800000000000004          4.6157968677723780E-011
   2.0399999999999991          4.7117780275768942E-011
   2.0999999999999979          4.7811206944496258E-011
   2.1600000000000001          4.8217854461251605E-011
   2.2199999999999989          4.8318080393018277E-011
   2.2799999999999976          4.8093144569323857E-011
   2.3399999999999999          4.7525377925631303E-011
   2.3999999999999986          4.6598369506243377E-011
   2.4599999999999973          4.5297102023712795E-011
   2.5199999999999996          4.3608133046603976E-011
   2.5799999999999983          4.1519781251920827E-011
   2.6400000000000006          3.9022242802314193E-011
   2.6999999999999993          3.6107801315209569E-011
   2.7599999999999980          3.2770951557203821E-011
   2.8200000000000003          2.9008551309718092E-011
   2.8799999999999990          2.4819974422537424E-011
   2.9399999999999977          2.0207245868017434E-011
   3.0000000000000000          1.5175141251949714E-011
   3.0599999999999987          9.7313359500888885E-012
   3.1199999999999974          3.8864843664014021E-012
   3.1799999999999997         -2.3456892584185546E-012
   3.2399999999999984         -8.9483032966437519E-012
   3.3000000000000007         -1.5901258932628405E-011
   3.3599999999999994         -2.3181208221494208E-011
   3.4199999999999982         -3.0761510787126109E-011
   3.4800000000000004         -3.8612225252435963E-011
   3.5399999999999991         -4.6700115641292811E-011
   3.5999999999999979         -5.4988674825290123E-011
   3.6600000000000001         -6.3438180088391589E-011
   3.7199999999999989         -7.2005735698275389E-011
   3.7799999999999976         -8.0645375066262104E-011
   3.8399999999999999         -8.9308158593019141E-011
   3.8999999999999986         -9.7942302293531720E-011
   3.9599999999999973         -1.0649331965490932E-010
   4.0199999999999996         -1.1490419957955943E-010
   4.0799999999999983         -1.2311557558421732E-010
   4.1400000000000006         -1.3106595357211916E-010
   4.1999999999999993         -1.3869194504149634E-010
   4.2599999999999980         -1.4592852159858031E-010
   4.3200000000000003         -1.5270925186889316E-010
   4.3799999999999990         -1.5896663391192732E-010
   4.4399999999999977         -1.6463238426979505E-010
   4.5000000000000000         -1.6963780141258136E-010
   4.5599999999999987         -1.7391406362692003E-010
   4.6199999999999974         -1.7739262756207354E-010
   4.6799999999999997         -1.8000563031553743E-010
   4.7399999999999984         -1.8168624666356347E-010
   4.7999999999999972         -1.8236911533563161E-010
   4.8599999999999994         -1.8199079057618668E-010
   4.9199999999999982         -1.8049016170111125E-010
   4.9800000000000004         -1.7780894052979027E-010
   5.0399999999999991         -1.7389207698265706E-010
   5.0999999999999979         -1.6868826840672514E-010
   5.1600000000000001         -1.6215040726616846E-010
   5.2199999999999989         -1.5423612368342670E-010
   5.2799999999999976         -1.4490822281898293E-010
   5.3399999999999999         -1.3413519530692181E-010
   5.3999999999999986         -1.2189170591039625E-010
   5.4599999999999973         -1.0815910899976728E-010
   5.5199999999999996         -9.2925884916364239E-011
   5.5799999999999983         -7.6188152339111627E-011
   5.6400000000000006         -5.7950136254336214E-011
   5.6999999999999993         -3.8224573353719899E-011
   5.7599999999999980         -1.7033209861413511E-011
   5.8200000000000003          5.5928632310016973E-012
   5.8799999999999990          2.9612740149722761E-011
   5.9399999999999977          5.4975358442641751E-011
   6.0000000000000000          8.1619237089737920E-011
   6.0599999999999987          1.0947209011422228E-010
   6.1199999999999974          1.3845065433090608E-010
   6.1799999999999997          1.6846040046474311E-010
   6.2399999999999984          1.9939541206193817E-010
   6.2999999999999972          2.3113830832412028E-010
   6.3599999999999994          2.6356010468552823E-010
   6.4199999999999982          2.9652030094216380E-010
   6.4800000000000004          3.2986688374928787E-010
   6.5399999999999991          3.6343650919729613E-010
   6.5999999999999979          3.9705466178246520E-010
   6.6600000000000001          4.3053596889379739E-010
   6.7199999999999989          4.6368460006613217E-010
   6.7799999999999976          4.9629456003732528E-010
   6.8399999999999999          5.2815029841265826E-010
   6.8999999999999986          5.5902739853879494E-010
   6.9599999999999973          5.8869300590889355E-010
   7.0199999999999996          6.1690679293593786E-010
   7.0799999999999983          6.4342179060323444E-010
   7.1400000000000006          6.6798529118769259E-010
   7.1999999999999993          6.9033974949467251E-010
   7.2599999999999980          7.1022401768372975E-010
   7.3200000000000003          7.2737455311863019E-010
   7.3799999999999990          7.4152644830290717E-010
   7.4399999999999977          7.5241502579811911E-010
   7.5000000000000000          7.5977692533084587E-010
   7.5599999999999987          7.6335181680593719E-010
   7.6199999999999974          7.6288380209664180E-010
   7.6799999999999997          7.5812293697062992E-010
   7.7399999999999984          7.4882678521384174E-010
   7.7999999999999972          7.3476220710172031E-010
   7.8599999999999994          7.1570691545296287E-010
   7.9199999999999982          6.9145115267700408E-010
   7.9800000000000004          6.6179942268099083E-010
   8.0399999999999991          6.2657224844907475E-010
   8.1000000000000014          5.8560779349045826E-010
   8.1599999999999966          5.3876343885963912E-010
   8.2199999999999989          4.8591770726015287E-010
   8.2800000000000011          4.2697170069738083E-010
   8.3399999999999963          3.6185069942538437E-010
   8.3999999999999986          2.9050569391393090E-010
   8.4600000000000009          2.1291498350298364E-010
   8.5199999999999960          1.2908528721038573E-010
   8.5799999999999983          3.9053328995437568E-011
   8.6400000000000006         -5.7113165556489539E-011