  -24.000000000000000          0.0000000000000000     
  -23.940000000000001          0.0000000000000000     
  -23.879999999999999          0.0000000000000000     
  -23.820000000000000          0.0000000000000000     
  -23.760000000000002          0.0000000000000000     
  -23.699999999999999          0.0000000000000000     
  -23.640000000000001          0.0000000000000000     
  -23.579999999999998          0.0000000000000000     
  -23.520000000000000          0.0000000000000000     
  -23.460000000000001          0.0000000000000000     
  -23.399999999999999          0.0000000000000000     
  -23.340000000000000          0.0000000000000000     
  -23.280000000000001          0.0000000000000000     
  -23.219999999999999          0.0000000000000000     
  -23.160000000000000          0.0000000000000000     
  -23.100000000000001          0.0000000000000000     
  -23.039999999999999          0.0000000000000000     
  -22.980000000000000          0.0000000000000000     
  -22.920000000000002          0.0000000000000000     
  -22.859999999999999          0.0000000000000000     
  -22.800000000000001          0.0000000000000000     
  -22.739999999999998          0.0000000000000000     
  -22.680000000000000          0.0000000000000000     
  -22.620000000000001          0.0000000000000000     
  -22.559999999999999          0.0000000000000000     
  -22.500000000000000          0.0000000000000000     
  -22.440000000000001          0.0000000000000000     
  -22.379999999999999          0.0000000000000000     
  -22.320000000000000          0.0000000000000000     
  -22.260000000000002          0.0000000000000000     
  -22.199999999999999          0.0000000000000000     
  -22.140000000000001          0.0000000000000000     
  -22.079999999999998          0.0000000000000000     
  -22.020000000000000          0.0000000000000000     
  -21.960000000000001          0.0000000000000000     
  -21.899999999999999          0.0000000000000000     
  -21.840000000000000          0.0000000000000000     
  -21.780000000000001          0.0000000000000000     
  -21.719999999999999          0.0000000000000000     
  -21.660000000000000          0.0000000000000000     
  -21.600000000000001          0.0000000000000000     
  -21.539999999999999          0.0000000000000000     
  -21.480000000000000          0.0000000000000000     
  -21.420000000000002          0.0000000000000000     
  -21.359999999999999          0.0000000000000000     
  -21.300000000000001          0.0000000000000000     
  -21.240000000000002          0.0000000000000000     
  -21.180000000000000          0.0000000000000000     
  -21.120000000000001          0.0000000000000000     
  -21.059999999999999          0.0000000000000000     
  -21.000000000000000          0.0000000000000000     
  -20.940000000000001          0.0000000000000000     
  -20.879999999999999          0.0000000000000000     
  -20.820000000000000          0.0000000000000000     
  -20.760000000000002          0.0000000000000000     
  -20.699999999999999          0.0000000000000000     
  -20.640000000000001          0.0000000000000000     
  -20.579999999999998          0.0000000000000000     
  -20.520000000000000          0.0000000000000000     
  -20.460000000000001          0.0000000000000000     
  -20.399999999999999          0.0000000000000000     
  -20.340000000000000          0.0000000000000000     
  -20.280000000000001          0.0000000000000000     
  -20.219999999999999          0.0000000000000000     
  -20.160000000000000          0.0000000000000000     
  -20.100000000000001          0.0000000000000000     
  -20.039999999999999          0.0000000000000000     
  -19.980000000000000          0.0000000000000000     
  -19.920000000000002          0.0000000000000000     
  -19.859999999999999          0.0000000000000000     
  -19.800000000000001          0.0000000000000000     
  -19.740000000000002          0.0000000000000000     
  -19.680000000000000          0.0000000000000000     
  -19.620000000000001          0.0000000000000000     
  -19.560000000000002          0.0000000000000000     
  -19.500000000000000          0.0000000000000000     
  -19.440000000000001          0.0000000000000000     
  -19.379999999999999          0.0000000000000000     
  -19.320000000000000          0.0000000000000000     
  -19.259999999999998          0.0000000000000000     
  -19.199999999999999          0.0000000000000000     
  -19.140000000000001          0.0000000000000000     
  -19.079999999999998          0.0000000000000000     
  -19.020000000000000          0.0000000000000000     
  -18.960000000000001          0.0000000000000000     
  -18.899999999999999          0.0000000000000000     
  -18.840000000000000          0.0000000000000000     
  -18.780000000000001          0.0000000000000000     
  -18.719999999999999          0.0000000000000000     
  -18.660000000000000          0.0000000000000000     
  -18.600000000000001          0.0000000000000000     
  -18.539999999999999          0.0000000000000000     
  -18.480000000000000          0.0000000000000000     
  -18.420000000000002          0.0000000000000000     
  -18.359999999999999          0.0000000000000000     
  -18.300000000000001          0.0000000000000000     
  -18.240000000000002          0.0000000000000000     
  -18.180000000000000          0.0000000000000000     
  -18.120000000000001         -6.8059083695755746E-041
  -18.060000000000002         -2.0863940885420747E-040
  -18.000000000000000         -4.0905903800758881E-040
  -17.940000000000001         -6.4874118503235986E-040
  -17.879999999999999         -6.5102434900728342E-040
  -17.820000000000000         -5.3127936364106555E-040
  -17.759999999999998         -6.7182715524095317E-040
  -17.699999999999999         -9.1821815830024610E-040
  -17.640000000000001         -2.3480630091535786E-040
  -17.579999999999998          1.4173005736269400E-039
  -17.520000000000000          4.2365461954454170E-039
  -17.460000000000001          7.1260221303346781E-039
  -17.399999999999999          1.0219343827605851E-038
  -17.340000000000000          1.3546523525912821E-038
  -17.280000000000001          1.7138323118094830E-038
  -17.219999999999999          1.9333061047168911E-038
  -17.160000000000000          1.9996248001429511E-038
  -17.100000000000001          1.9445707799178119E-038
  -17.039999999999999          1.8193810670335068E-038
  -16.980000000000000          1.6052638412180107E-038
  -16.920000000000002          5.3497377275742086E-039
  -16.859999999999999         -1.5088327141952427E-038
  -16.800000000000001         -4.2877571537691536E-038
  -16.740000000000002         -7.9924982946318155E-038
  -16.680000000000000         -1.1677419195558813E-037
  -16.620000000000001         -1.5605453260837115E-037
  -16.560000000000002         -1.9736276342137455E-037
  -16.500000000000000         -2.4086677039702238E-037
  -16.440000000000001         -2.8693175727604758E-037
  -16.379999999999999         -3.3592530431195009E-037
  -16.320000000000000         -3.8816517101161294E-037
  -16.260000000000002         -4.4380547107547573E-037
  -16.199999999999999         -5.0912777466056756E-037
  -16.140000000000001         -5.8173590014272487E-037
  -16.079999999999998         -6.5250652414785139E-037
  -16.020000000000000         -7.2371493868700936E-037
  -15.960000000000001         -7.9362779171683282E-037
  -15.900000000000000         -8.5917948198623604E-037
  -15.840000000000000         -9.1313886202671487E-037
  -15.780000000000001         -9.5177778794674921E-037
  -15.720000000000001         -9.6779301007444263E-037
  -15.660000000000000         -9.5140587218699708E-037
  -15.600000000000000         -8.9283111504655232E-037
  -15.540000000000001         -7.7716881504906427E-037
  -15.480000000000000         -5.8971937062792212E-037
  -15.420000000000000         -3.1663979952009675E-037
  -15.359999999999999          5.7121546131098823E-038
  -15.300000000000001          5.4579304561204093E-037
  -15.240000000000000          1.1408431682631688E-036
  -15.180000000000000          1.8553303830328876E-036
  -15.120000000000001          2.6949759954696975E-036
  -15.060000000000000          3.6563074848209365E-036
  -15.000000000000000          4.7342602609454503E-036
  -14.940000000000000          5.9229063873529690E-036
  -14.880000000000001          7.1655695710163550E-036
  -14.820000000000000          8.4268501048239882E-036
  -14.760000000000000          9.6465001363820675E-036
  -14.700000000000001          1.0765146836769065E-035
  -14.640000000000001          1.1712408197490697E-035
  -14.580000000000000          1.2387736348602962E-035
  -14.520000000000000          1.2679925754229458E-035
  -14.460000000000001          1.2461425683536666E-035
  -14.400000000000000          1.1585996733239095E-035
  -14.340000000000000          9.8873228109720175E-036
  -14.280000000000001          7.2043340538064275E-036
  -14.220000000000001          3.3450594497684921E-036
  -14.160000000000000         -1.9160714081709224E-036
  -14.100000000000000         -8.7678971375574783E-036
  -14.040000000000001         -1.7359267763853434E-035
  -13.980000000000000         -2.7836172561246761E-035
  -13.920000000000000         -4.0322999466112257E-035
  -13.860000000000001         -5.4888636558647934E-035
  -13.800000000000001         -7.1503968497913751E-035
  -13.740000000000000         -9.0086870316231752E-035
  -13.680000000000000         -1.1045114084040170E-034
  -13.620000000000001         -1.3228761199541363E-034
  -13.560000000000000         -1.5513848838062846E-034
  -13.500000000000000         -1.7837278380755582E-034
  -13.440000000000001         -2.0116833649652923E-034
  -13.380000000000001         -2.2248432464377470E-034
  -13.320000000000000         -2.4104134761548425E-034
  -13.260000000000000         -2.5532150522902792E-034
  -13.200000000000001         -2.6352899141111066E-034
  -13.140000000000001         -2.6361743444398878E-034
  -13.080000000000000         -2.5326393141508429E-034
  -13.020000000000000         -2.2991064058161920E-034
  -12.960000000000001         -1.9076977261517774E-034
  -12.900000000000000         -1.3289398625270180E-034
  -12.840000000000000         -5.3202686397039615E-035
  -12.780000000000001          5.1354159623470697E-035
  -12.720000000000001          1.8377354982704863E-034
  -12.660000000000000          3.4688485058357916E-034
  -12.600000000000000          5.4311614103937831E-034
  -12.540000000000001          7.7436174739797106E-034
  -12.480000000000000          1.0417646035176862E-033
  -12.420000000000000          1.3454719535611660E-033
  -12.360000000000001          1.6843789585720944E-033
  -12.300000000000001          2.0558502232713419E-033
  -12.240000000000000          2.4554274965828200E-033
  -12.180000000000000          2.8764996481970200E-033
  -12.120000000000001          3.3100129972056001E-033
  -12.060000000000000          3.7441470461315178E-033
  -12.000000000000000          4.1640471879230202E-033
  -11.940000000000001          4.5515518658017427E-033
  -11.880000000000001          4.8849846186908269E-033
  -11.820000000000000          5.1390478866674291E-033
  -11.760000000000000          5.2847070691146855E-033
  -11.700000000000001          5.2892646529458659E-033
  -11.640000000000001          5.1165659048537121E-033
  -11.580000000000000          4.7273314936592960E-033
  -11.520000000000000          4.0796878318869036E-033
  -11.460000000000001          3.1299000491346593E-033
  -11.400000000000000          1.8333388322578628E-033
  -11.340000000000000          1.4571385069641348E-034
  -11.280000000000001         -1.9754199759970661E-033
  -11.220000000000001         -4.5688892586087772E-033
  -11.160000000000000         -7.6677842324554439E-033
  -11.100000000000000         -1.1297057304408340E-032
  -11.040000000000001         -1.5470817085868612E-032
  -10.980000000000000         -2.0189342456048645E-032
  -10.920000000000000         -2.5435832015640949E-032
  -10.860000000000001         -3.1172947276381822E-032
  -10.800000000000001         -3.7339195313078432E-032
  -10.740000000000000         -4.3845236646697369E-032
  -10.680000000000000         -5.0570205137761561E-032
  -10.620000000000001         -5.7358140230555338E-032
  -10.560000000000000         -6.4014739811418204E-032
  -10.500000000000000         -7.0304485318170279E-032
  -10.440000000000001         -7.5948365165893693E-032
  -10.380000000000001         -8.0622472841943178E-032
  -10.320000000000000         -8.3957566810846401E-032
  -10.260000000000000         -8.5539882386042144E-032
  -10.200000000000001         -8.4913499228435228E-032
  -10.140000000000001         -8.1584450934461224E-032
  -10.080000000000000         -7.5026852498198388E-032
  -10.020000000000001         -6.4691332884777391E-032
  -9.9600000000000009         -5.0016006584572000E-032
  -9.9000000000000004         -3.0440135236079519E-032
  -9.8399999999999999         -5.4208188166042179E-033
  -9.7800000000000011          2.5547296342853892E-032
  -9.7200000000000006          6.2909115759621619E-032
  -9.6600000000000001          1.0702301566925954E-031
  -9.6000000000000014          1.5813169453535878E-031
  -9.5400000000000009          2.1632997956678919E-031
  -9.4800000000000004          2.8153018750650398E-031
  -9.4199999999999999          3.5342523919241624E-031
  -9.3600000000000012          4.3145009724914643E-031
  -9.3000000000000007          5.1474263788291922E-031
  -9.2400000000000002          6.0210434750228667E-031
  -9.1799999999999997          6.9196237365051101E-031
  -9.1200000000000010          7.8233443159161378E-031
  -9.0600000000000005          8.7079699353237245E-031
  -9.0000000000000000          9.5446033234849263E-031
  -8.9400000000000013          1.0299505127024824E-030
  -8.8800000000000008          1.0934011955018895E-030
  -8.8200000000000003          1.1404576827655211E-030
  -8.7599999999999998          1.1662950163639377E-030
  -8.7000000000000011          1.1656526641232582E-030
  -8.6400000000000006          1.1328881033011167E-030
  -8.5800000000000001          1.0620521332685886E-030
  -8.5200000000000014          9.4698735419018069E-031
  -8.4600000000000009          7.8145268903519972E-031
  -8.4000000000000004          5.5927454096820497E-031
  -8.3399999999999999          2.7452713314762899E-031
  -8.2800000000000011         -7.8257696245635313E-032
  -8.2200000000000006         -5.0385206225011645E-031
  -8.1600000000000001         -1.0060634209897031E-030
  -8.1000000000000014         -1.5874388362667998E-030
  -8.0400000000000009         -2.2489449837206110E-030
  -7.9800000000000004         -2.9896266208140027E-030
  -7.9200000000000017         -3.8062471636433588E-030
  -7.8599999999999994         -4.6929211666740015E-030
  -7.8000000000000007         -5.6407440913508627E-030
  -7.7400000000000020         -6.6374264876740955E-030
  -7.6799999999999997         -7.6669497651824033E-030
  -7.6200000000000010         -8.7092487476933105E-030
  -7.5600000000000023         -9.7399395095307728E-030
  -7.5000000000000000         -1.0730107716828158E-029
  -7.4400000000000013         -1.1646167391403845E-029
  -7.3799999999999990         -1.2449823383373106E-029
  -7.3200000000000003         -1.3098133558320586E-029
  -7.2600000000000016         -1.3543714527687460E-029
  -7.1999999999999993         -1.3735087607120437E-029
  -7.1400000000000006         -1.3617206143913999E-029
  -7.0800000000000018         -1.3132158886763119E-029
  -7.0199999999999996         -1.2220086348529966E-029
  -6.9600000000000009         -1.0820314148121065E-029
  -6.9000000000000021         -8.8727128281923995E-030
  -6.8399999999999999         -6.3193105590392717E-030
  -6.7800000000000011         -3.1061306389786864E-030
  -6.7199999999999989          8.1471891237936480E-031
  -6.6600000000000001          5.4827266894607603E-030
  -6.6000000000000014          1.0926442420447841E-029
  -6.5399999999999991          1.7160743558590846E-029
  -6.4800000000000004          2.4183948593277606E-029
  -6.4200000000000017          3.1974809530862619E-029
  -6.3599999999999994          4.0489427232839538E-029
  -6.3000000000000007          4.9658179212566553E-029
  -6.2400000000000020          5.9382703239566276E-029
  -6.1799999999999997          6.9533038409312281E-029
  -6.1200000000000010          7.9945029055371180E-029
  -6.0600000000000023          9.0418058477429678E-029
  -6.0000000000000000          1.0071330015433312E-028
  -5.9400000000000013          1.1055250844350286E-028
  -5.8799999999999990          1.1961758707144694E-028
  -5.8200000000000003          1.2755099032920128E-028
  -5.7600000000000016          1.3395716814740052E-028
  -5.6999999999999993          1.3840509079614926E-028
  -5.6400000000000006          1.4043211559961410E-028
  -5.5800000000000018          1.3954920992127381E-028
  -5.5199999999999996          1.3524775609105607E-028
  -5.4600000000000009          1.2700790866922225E-028
  -5.4000000000000021          1.1430867380694799E-028
  -5.3399999999999999          9.6639800016537050E-029
  -5.2800000000000011          7.3515363778328292E-029
  -5.2200000000000024          4.4489199658247537E-029
  -5.1600000000000001          9.1719238226962260E-030
  -5.1000000000000014         -3.2750305230504367E-029
  -5.0399999999999991         -8.1495730663896141E-029
  -4.9800000000000004         -1.3716558300131150E-028
  -4.9200000000000017         -1.9972186279434342E-028
  -4.8599999999999994         -2.6896440667873947E-028
  -4.8000000000000007         -3.4450804043894395E-028
  -4.7400000000000020         -4.2575961622868214E-028
  -4.6799999999999997         -5.1189633647139660E-028
  -4.6200000000000010         -6.0184530514102504E-028
  -4.5600000000000023         -6.9426564602165177E-028
  -4.5000000000000000         -7.8753300939043090E-028
  -4.4400000000000013         -8.7972849858816757E-028
  -4.3799999999999990         -9.6863165103613474E-028
  -4.3200000000000003         -1.0517192793536006E-027
  -4.2600000000000016         -1.1261708162638643E-027
  -4.1999999999999993         -1.1888807247841975E-027
  -4.1400000000000006         -1.2364791956384700E-027
  -4.0800000000000018         -1.2653622281408290E-027
  -4.0199999999999996         -1.2717312438802600E-027
  -3.9600000000000009         -1.2516434143766701E-027
  -3.9000000000000021         -1.2010733843560911E-027
  -3.8399999999999999         -1.1159861407806905E-027
  -3.7800000000000011         -9.9242232420133290E-028
  -3.7200000000000024         -8.2659472786154263E-028
  -3.6600000000000001         -6.1499732374176522E-028
  -3.6000000000000014         -3.5452466160621647E-028
  -3.5399999999999991         -4.2602325339950478E-029
  -3.4800000000000004          3.2267366707483323E-028
  -3.4200000000000017          7.4238952923122040E-028
  -3.3599999999999994          1.2166609251105900E-027
  -3.3000000000000007          1.7444761290167834E-027
  -3.2400000000000020          2.3235379842671148E-027
  -3.1799999999999997          2.9501098429853086E-027
  -3.1200000000000010          3.6188657065311768E-027
  -3.0600000000000023          4.3227501234136196E-027
  -3.0000000000000000          5.0528542463967579E-027
  -2.9400000000000013          5.7983091817482561E-027
  -2.8800000000000026          6.5462033730818484E-027
  -2.8200000000000003          7.2815315920153148E-027
  -2.7600000000000016          7.9871748456802763E-027
  -2.6999999999999993          8.6439251700570910E-027
  -2.6400000000000006          9.2305526188327127E-027
  -2.5800000000000018          9.7239259221111711E-027
  -2.5199999999999996          1.0099190828397850E-026
  -2.4600000000000009          1.0330006563855484E-026
  -2.4000000000000021          1.0388851506272715E-026
  -2.3399999999999999          1.0247397611471511E-026
  -2.2800000000000011          9.8769551673763372E-027
  -2.2200000000000024          9.2489966534739299E-027
  -2.1600000000000001          8.3357482768093401E-027
  -2.1000000000000014          7.1108616759717418E-027
  -2.0399999999999991          5.5501509676689462E-027
  -1.9800000000000004          3.6324015302229505E-027
  -1.9200000000000017          1.3402382109747385E-027
  -1.8599999999999994         -1.3389581735823216E-027
  -1.8000000000000007         -4.4120888050091211E-027
  -1.7400000000000020         -7.8793443804302876E-027
  -1.6799999999999997         -1.1733205010894622E-026
  -1.6200000000000010         -1.5957436799627848E-026
  -1.5600000000000023         -2.0526118686873552E-026
  -1.5000000000000000         -2.5402713630559749E-026
  -1.4400000000000013         -3.0539211446697149E-026
  -1.3800000000000026         -3.5875368735965250E-026
  -1.3200000000000003         -4.1338074237278712E-026
  -1.2600000000000016         -4.6840882878225166E-026
  -1.1999999999999993         -5.2283717747088373E-026
  -1.1400000000000006         -5.7552816385021247E-026
  -1.0800000000000018         -6.2520906366231891E-026
  -1.0199999999999996         -6.7047691222846831E-026
 -0.96000000000000085         -7.0980628442481048E-026
 -0.90000000000000213         -7.4156077902752001E-026
 -0.83999999999999986         -7.6400802798173497E-026
 -0.78000000000000114         -7.7533882306222936E-026
 -0.72000000000000242         -7.7369030763592159E-026
 -0.66000000000000014         -7.5717328840617027E-026
 -0.60000000000000142         -7.2390452187164410E-026
 -0.53999999999999915         -6.7204265243398003E-026
 -0.48000000000000043         -5.9982875858565721E-026
 -0.42000000000000171         -5.0563120662471834E-026
 -0.35999999999999943         -3.8799415179189776E-026
 -0.30000000000000071         -2.4568973781611872E-026
 -0.24000000000000199         -7.7772678785644839E-027
 -0.17999999999999972          1.1636176317426516E-026
 -0.12000000000000099          3.3691886641340121E-026
  -6.0000000000002274E-002     5.8364480972734234E-026
   0.0000000000000000          8.5576674173510372E-026
   5.9999999999998721E-002     1.1519347980745043E-025
  0.11999999999999744          1.4701658132571756E-025
  0.17999999999999972          1.8077923290577646E-025
  0.23999999999999844          2.1614163090492994E-025
  0.30000000000000071          2.5268694720276144E-025
  0.35999999999999943          2.8991830956268926E-025
  0.41999999999999815          3.2725681748581141E-025
  0.48000000000000043          3.6404070717067345E-025
  0.53999999999999915          3.9952601204103041E-025
  0.59999999999999787          4.3288872205588098E-025
  0.66000000000000014          4.6322871358620378E-025
  0.71999999999999886          4.8957548435291782E-025
  0.77999999999999758          5.1089610675770810E-025
  0.83999999999999986          5.2610520621208266E-025
  0.89999999999999858          5.3407725818161177E-025
  0.96000000000000085          5.3366131567145067E-025
   1.0199999999999996          5.2369787867168365E-025
   1.0799999999999983          5.0303857031056781E-025
   1.1400000000000006          4.7056788519559223E-025
   1.1999999999999993          4.2522725858466443E-025
   1.2599999999999980          3.6604159295999024E-025
   1.3200000000000003          2.9214729966574418E-025
   1.3799999999999990          2.0282252558708563E-025
   1.4399999999999977          9.7518644423392003E-026
   1.5000000000000000         -2.4107292745974330E-026
   1.5599999999999987         -1.6215923009347476E-025
   1.6199999999999974         -3.1646882225860562E-025
   1.6799999999999997         -4.8656255013308681E-025
   1.7399999999999984         -6.7162966941217760E-025
   1.8000000000000007         -8.7049213443142393E-025
   1.8599999999999994         -1.0815769408358456E-024
   1.9199999999999982         -1.3028915666648347E-024
   1.9800000000000004         -1.5320038406917966E-024
   2.0399999999999991         -1.7660265334790041E-024
   2.0999999999999979         -2.0016073224696819E-024
   2.1600000000000001         -2.2349267207521503E-024
   2.2199999999999989         -2.4617023882697218E-024
   2.2799999999999976         -2.6772027718886985E-024
   2.3399999999999999         -2.8762699596431342E-024
   2.3999999999999986         -3.0533517214694012E-024
   2.4599999999999973         -3.2025457106222207E-024
   2.5199999999999996         -3.3176546911412930E-024
   2.5799999999999983         -3.3922527647314766E-024
   2.6400000000000006         -3.4197645153088327E-024
   2.6999999999999993         -3.3935572194450502E-024
   2.7599999999999980         -3.3070438569633689E-024
   2.8200000000000003         -3.1538001973995534E-024
   2.8799999999999990         -2.9276912991528581E-024
   2.9399999999999977         -2.6230109225370552E-024
   3.0000000000000000         -2.2346300466668981E-024
   3.0599999999999987         -1.7581552646665984E-024
   3.1199999999999974         -1.1900917794966200E-024
   3.1799999999999997         -5.2801548559774871E-025
   3.2399999999999984          2.2925521006615998E-025
   3.3000000000000007          1.0814842236958632E-024
   3.3599999999999994          2.0268467682408309E-024
   3.4199999999999982          3.0617609346486782E-024
   3.4800000000000004          4.1807309399086752E-024
   3.5399999999999991          5.3761997778850692E-024
   3.5999999999999979          6.6384176380047192E-024
   3.6600000000000001          7.9553329436796143E-024
   3.7199999999999989          9.3125048188225573E-024
   3.7799999999999976          1.0693043757245999E-023
   3.8399999999999999          1.2077587366675706E-023
   3.8999999999999986          1.3444309888971505E-023
   3.9599999999999973          1.4768974408257551E-023
   4.0199999999999996          1.6025031371958120E-023
   4.0799999999999983          1.7183762043078052E-023
   4.1400000000000006          1.8214476839628674E-023
   4.1999999999999993          1.9084765999152692E-023
   4.2599999999999980          1.9760814181252367E-023
   4.3200000000000003          2.0207765490528321E-023
   4.3799999999999990          2.0390154887861750E-023
   4.4399999999999977          2.0272393317481477E-023
   4.5000000000000000          1.9819324825194173E-023
   4.5599999999999987          1.8996821785996463E-023
   4.6199999999999974          1.7772458096761610E-023
   4.6799999999999997          1.6116210474523960E-023
   4.7399999999999984          1.4001221319538694E-023
   4.7999999999999972          1.1404593584366322E-023
   4.8599999999999994          8.3082183352074588E-024
   4.9199999999999982          4.6996163369784296E-024
   4.9800000000000004          5.7280034105493411E-025
   5.0399999999999991         -4.0708726144782333E-024
   5.0999999999999979         -9.2218561096555133E-024
   5.1600000000000001         -1.4861613016973583E-023
   5.2199999999999989         -2.0961840014995894E-023
   5.2799999999999976         -2.7483780785083019E-023
   5.3399999999999999         -3.4377594908557126E-023
   5.3999999999999986         -4.1581850211810255E-023
   5.4599999999999973         -4.9023112266608039E-023
   5.5199999999999996         -5.6615686100093559E-023
   5.5799999999999983         -6.4261517148519148E-023
   5.6400000000000006         -7.1850248927334219E-023
   5.6999999999999993         -7.9259520763683660E-023
   5.7599999999999980         -8.6355417137060516E-023
   5.8200000000000003         -9.2993208454750246E-023
   5.8799999999999990         -9.9018294705085164E-023
   5.9399999999999977         -1.0426740039691137E-022
   6.0000000000000000         -1.0857009908345216E-022
   6.0599999999999987         -1.1175053991438904E-022
   6.1199999999999974         -1.1362948389686753E-022
   6.1799999999999997         -1.1402660793433775E-022
   6.2399999999999984         -1.1276311099902236E-022
   6.2999999999999972         -1.0966453147979707E-022
   6.3599999999999994         -1.0456387528611286E-022
   6.4199999999999982         -9.7304917810432512E-023
   6.4800000000000004         -8.7745767022867592E-023
   6.5399999999999991         -7.5762551121301257E-023
   6.5999999999999979         -6.1253303407363333E-023
   6.6600000000000001         -4.4141870544155337E-023
   6.7199999999999989         -2.4381961503872560E-023
   6.7799999999999976         -1.9611297184039489E-024
   6.8399999999999999          2.3095303502964696E-023
   6.8999999999999986          5.0720419615875160E-023
   6.9599999999999973          8.0802100458339971E-023
   7.0199999999999996          1.1317969862284074E-022
   7.0799999999999983          1.4764099350760575E-022
   7.1400000000000006          1.8391969803515361E-022
   7.1999999999999993          2.2169336097306518E-022
   7.2599999999999980          2.6058194954544708E-022
   7.3200000000000003          3.0014702483658684E-022
   7.3799999999999990          3.3989182358851793E-022
   7.4399999999999977          3.7926203966773028E-022
   7.5000000000000000          4.1764760495846934E-022
   7.5599999999999987          4.5438540372044371E-022
   7.6199999999999974          4.8876318945609215E-022
   7.6799999999999997          5.2002438793392361E-022
   7.7399999999999984          5.4737430553710490E-022
   7.7999999999999972          5.6998736760553039E-022
   7.8599999999999994          5.8701552646259141E-022
   7.9199999999999982          5.9759811434171391E-022
   7.9800000000000004          6.0087263412350981E-022
   8.0399999999999991          5.9598694650028531E-022
   8.1000000000000014          5.8211242659660220E-022
   8.1599999999999966          5.5845807368848253E-022
   8.2199999999999989          5.2428596445244397E-022
   8.2800000000000011          4.7892709024849789E-022
   8.3399999999999963          4.2179819857046008E-022
   8.3999999999999986          3.5241903636582673E-022
   8.4600000000000009          2.7042977597004441E-022
   8.5199999999999960          1.7560913666471878E-022
   8.5799999999999983          6.7891476378250268E-023
   8.6400000000000006         -5.2615541628124444E-023