  -24.000000000000000          0.0000000000000000     
  -23.940000000000001          0.0000000000000000     
  -23.879999999999999          0.0000000000000000     
  -23.820000000000000          0.0000000000000000     
  -23.760000000000002          0.0000000000000000     
  -23.699999999999999          0.0000000000000000     
  -23.640000000000001          0.0000000000000000     
  -23.579999999999998          0.0000000000000000     
  -23.520000000000000          5.1315063314384913E-036
  -23.460000000000001          8.5334202288472931E-035
  -23.399999999999999          7.4834758690493788E-034
  -23.340000000000000          4.6052307931470122E-033
  -23.280000000000001          2.2304990377571430E-032
  -23.219999999999999          9.0457551709460428E-032
  -23.160000000000000          3.1922107311468863E-031
  -23.100000000000001          1.0061116611930789E-030
  -23.039999999999999          2.8853990872016204E-030
  -22.980000000000000          7.6351220531209240E-030
  -22.920000000000002          1.8842211221649661E-029
  -22.859999999999999          4.3734675802648109E-029
  -22.800000000000001          9.6127942558977241E-029
  -22.739999999999998          2.0119295896777538E-028
  -22.680000000000000          4.0281433534188571E-028
  -22.620000000000001          7.7443425745200711E-028
  -22.559999999999999          1.4343108788846781E-027
  -22.500000000000000          2.5659747832950637E-027
  -22.440000000000001          4.4442551284781116E-027
  -22.379999999999999          7.4664167815677107E-027
  -22.320000000000000          1.2186576327910101E-026
  -22.260000000000002          1.9349589173220218E-026
  -22.199999999999999          2.9917744097787561E-026
  -22.140000000000001          4.5080067879102618E-026
  -22.079999999999998          6.6229769783120560E-026
  -22.020000000000000          9.4890369456378098E-026
  -21.960000000000001          1.3256637999167731E-025
  -21.899999999999999          1.8048973864388554E-025
  -21.840000000000000          2.3923004740224068E-025
  -21.780000000000001          3.0813654794500402E-025
  -21.719999999999999          3.8458225742274396E-025
  -21.660000000000000          4.6299053406053837E-025
  -21.600000000000001          5.3363893641968525E-025
  -21.539999999999999          5.8126052242251352E-025
  -21.480000000000000          5.8349732557669068E-025
  -21.420000000000002          5.0930498390073463E-025
  -21.359999999999999          3.1746334955836986E-025
  -21.300000000000001         -4.4585389037679254E-026
  -21.240000000000002         -6.4128016798537089E-025
  -21.180000000000000         -1.5484976547301689E-024
  -21.120000000000001         -2.8516879527803510E-024
  -21.059999999999999         -4.6420946186163134E-024
  -21.000000000000000         -7.0105301540232080E-024
  -20.940000000000001         -1.0038185198733148E-023
  -20.879999999999999         -1.3784001997282437E-023
  -20.820000000000000         -1.8268261025628630E-023
  -20.760000000000002         -2.3452218304325344E-023
  -20.699999999999999         -2.9213957811531117E-023
  -20.640000000000001         -3.5320951448029044E-023
  -20.579999999999998         -4.1400405211557164E-023
  -20.520000000000000         -4.6908978398208803E-023
  -20.460000000000001         -5.1104233169670403E-023
  -20.399999999999999         -5.3020843437784684E-023
  -20.340000000000000         -5.1455457428135891E-023
  -20.280000000000001         -4.4964793370474414E-023
  -20.219999999999999         -3.1882163534226988E-023
  -20.160000000000000         -1.0358187333704249E-023
  -20.100000000000001          2.1568363402341891E-023
  -20.039999999999999          6.5863986920282214E-023
  -19.980000000000000          1.2435300898361574E-022
  -19.920000000000002          1.9852557343704470E-022
  -19.859999999999999          2.8929929414579345E-022
  -19.800000000000001          3.9673556627264066E-022
  -19.740000000000002          5.1971515917850596E-022
  -19.680000000000000          6.5558214365195447E-022
  -19.620000000000001          7.9976985799303683E-022
  -19.560000000000002          9.4542978129999486E-022
  -19.500000000000000          1.0830889324309479E-021
  -19.440000000000001          1.2003685556182455E-021
  -19.379999999999999          1.2818039288231337E-021
  -19.320000000000000          1.3088084014778466E-021
  -19.259999999999998          1.2598318587487833E-021
  -19.199999999999999          1.1107643468553722E-021
  -19.140000000000001          8.3563551573740763E-022
  -19.079999999999998          4.0765949594732949E-022
  -19.020000000000000         -1.9933766907755485E-022
  -18.960000000000001         -1.0090758690282357E-021
  -18.899999999999999         -2.0405550479285290E-021
  -18.840000000000000         -3.3053775145952348E-021
  -18.780000000000001         -4.8046931242653493E-021
  -18.719999999999999         -6.5258497617484869E-021
  -18.660000000000000         -8.4388487624700785E-021
  -18.600000000000001         -1.0492767392216949E-020
  -18.539999999999999         -1.2612347216921850E-020
  -18.480000000000000         -1.4694988278234629E-020
  -18.420000000000002         -1.6608434410932969E-020
  -18.359999999999999         -1.8189486986792798E-020
  -18.300000000000001         -1.9244090273072090E-020
  -18.240000000000002         -1.9549172104135631E-020
  -18.180000000000000         -1.8856608949845938E-020
  -18.120000000000001         -1.6899686585948374E-020
  -18.060000000000002         -1.3402358952865086E-020
  -18.000000000000000         -8.0915650404556911E-021
  -17.940000000000001         -7.1274536655609078E-022
  -17.879999999999999          8.9514108982694978E-021
  -17.820000000000000          2.1059159676366491E-020
  -17.759999999999998          3.5685172319062556E-020
  -17.699999999999999          5.2793834215617742E-020
  -17.640000000000001          7.2211265422418678E-020
  -17.579999999999998          9.3597055110559348E-020
  -17.520000000000000          1.1641721018235108E-019
  -17.460000000000001          1.3991987488704676E-019
  -17.399999999999999          1.6311577199677193E-019
  -17.340000000000000          1.8476550435393539E-019
  -17.280000000000001          2.0337605190399961E-019
  -17.219999999999999          2.1720867410847391E-019
  -17.160000000000000          2.2430099100964628E-019
  -17.100000000000001          2.2250510639562890E-019
  -17.039999999999999          2.0954411198135987E-019
  -16.980000000000000          1.8308838336518483E-019
  -16.920000000000002          1.4085292157131905E-019
  -16.859999999999999          8.0715975694713566E-020
  -16.800000000000001          8.5810717286846137E-022
  -16.740000000000002         -1.0007948980744281E-019
  -16.680000000000000         -2.2282075830362939E-019
  -16.620000000000001         -3.6726921147381560E-019
  -16.560000000000002         -5.3231598411618893E-019
  -16.500000000000000         -7.1564976050414561E-019
  -16.440000000000001         -9.1357721329029752E-019
  -16.379999999999999         -1.1208638034234512E-018
  -16.320000000000000         -1.3306072364846930E-018
  -16.260000000000002         -1.5341562604274006E-018
  -16.199999999999999         -1.7210871698271833E-018
  -16.140000000000001         -1.8792532554634513E-018
  -16.079999999999998         -1.9949194268982592E-018
  -16.020000000000000         -2.0529945716723987E-018
  -15.960000000000001         -2.0373736278958807E-018
  -15.900000000000000         -1.9313961260222225E-018
  -15.840000000000000         -1.7184285828438159E-018
  -15.780000000000001         -1.3825695914976818E-018
  -15.720000000000001         -9.0947566178863714E-019
  -15.660000000000000         -2.8729753111280104E-019
  -15.600000000000000          4.9228926683283198E-019
  -15.540000000000001          1.4329818839008695E-018
  -15.480000000000000          2.5327072440739828E-018
  -15.420000000000000          3.7824765217423782E-018
  -15.359999999999999          5.1652815171783448E-018
  -15.300000000000001          6.6550887126593706E-018
  -15.240000000000000          8.2159894294095628E-018
  -15.180000000000000          9.8015661813731706E-018
  -15.120000000000001          1.1354552359778454E-017
  -15.060000000000000          1.2806847899241236E-017
  -15.000000000000000          1.4079957890619066E-017
  -14.940000000000000          1.5085932768955465E-017
  -14.880000000000001          1.5728850525807550E-017
  -14.820000000000000          1.5906903080293418E-017
  -14.760000000000000          1.5515111555150950E-017
  -14.700000000000001          1.4448693258525087E-017
  -14.640000000000001          1.2607074371724372E-017
  -14.580000000000000          9.8985054966106281E-018
  -14.520000000000000          6.2452450506115901E-018
  -14.460000000000001          1.5891855167306716E-018
  -14.400000000000000         -4.1021655158140453E-018
  -14.340000000000000         -1.0829537100931771E-017
  -14.280000000000001         -1.8555764721850583E-017
  -14.220000000000001         -2.7199880727726949E-017
  -14.160000000000000         -3.6631747053707443E-017
  -14.100000000000000         -4.6667440959507057E-017
  -14.040000000000001         -5.7065746303169334E-017
  -13.980000000000000         -6.7526061473393062E-017
  -13.920000000000000         -7.7688055974071324E-017
  -13.860000000000001         -8.7133349340854956E-017
  -13.800000000000001         -9.5389593842802639E-017
  -13.740000000000000         -1.0193715774388551E-016
  -13.680000000000000         -1.0621864096949142E-016
  -13.620000000000001         -1.0765141193949459E-016
  -13.560000000000000         -1.0564318964936156E-016
  -13.500000000000000         -9.9610769888779231E-017
  -13.440000000000001         -8.9001592045187534E-017
  -13.380000000000001         -7.3318083149975559E-017
  -13.320000000000000         -5.2144283384932578E-017
  -13.260000000000000         -2.5174283067591511E-017
  -13.200000000000001          7.7581504347422685E-018
  -13.140000000000001          4.6649658414455595E-017
  -13.080000000000000          9.1297933487264072E-017
  -13.020000000000000          1.4127407692604453E-016
  -12.960000000000001          1.9589773478456569E-016
  -12.900000000000000          2.5421656193726745E-016
  -12.840000000000000          3.1499096379771691E-016
  -12.780000000000001          3.7668576894604454E-016
  -12.720000000000001          4.3747026613463899E-016
  -12.660000000000000          4.9522770139400901E-016
  -12.600000000000000          5.4757540882432889E-016
  -12.540000000000001          5.9189675488529174E-016
  -12.480000000000000          6.2538604021266942E-016
  -12.420000000000000          6.4510592735272232E-016
  -12.360000000000001          6.4805867142499446E-016
  -12.300000000000001          6.3127040083580664E-016
  -12.240000000000000          5.9188784402157901E-016
  -12.180000000000000          5.2728649225513479E-016
  -12.120000000000001          4.3518857844323096E-016
  -12.060000000000000          3.1378868583460735E-016
  -12.000000000000000          1.6188398583807962E-016
  -11.940000000000001         -2.0993614334247716E-017
  -11.880000000000001         -2.3444772578233896E-016
  -11.820000000000000         -4.7709436194899301E-016
  -11.760000000000000         -7.4644979309847590E-016
  -11.700000000000001         -1.0388348146744159E-015
  -11.640000000000001         -1.3493002690362620E-015
  -11.580000000000000         -1.6715794415269950E-015
  -11.520000000000000         -1.9980731225715489E-015
  -11.460000000000001         -2.3198704985551120E-015
  -11.400000000000000         -2.6268130936809662E-015
  -11.340000000000000         -2.9076043795829180E-015
  -11.280000000000001         -3.1499673922401100E-015
  -11.220000000000001         -3.3408555654633122E-015
  -11.160000000000000         -3.4667147850616666E-015
  -11.100000000000000         -3.5137977221888058E-015
  -11.040000000000001         -3.4685291847240889E-015
  -10.980000000000000         -3.3179178687240116E-015
  -10.920000000000000         -3.0500096289824413E-015
  -10.860000000000001         -2.6543750075281088E-015
  -10.800000000000001         -2.1226220501449128E-015
  -10.740000000000000         -1.4489221810795801E-015
  -10.680000000000000         -6.3053843516800772E-016
  -10.620000000000001          3.3166047192884130E-016
  -10.560000000000000          1.4327165884959781E-015
  -10.500000000000000          2.6631446876129212E-015
  -10.440000000000001          4.0085607993866051E-015
  -10.380000000000001          5.4493942244073083E-015
  -10.320000000000000          6.9607025970754915E-015
  -10.260000000000000          8.5121091198116614E-015
  -10.200000000000001          1.0067875071179061E-014
  -10.140000000000001          1.1587132750387517E-014
  -10.080000000000000          1.3024279760835185E-014
  -10.020000000000001          1.4329553528677570E-014
  -9.9600000000000009          1.5449793992986069E-014
  -9.9000000000000004          1.6329395084928702E-014
  -9.8399999999999999          1.6911431434456219E-014
  -9.7800000000000011          1.7138985855446802E-014
  -9.7200000000000006          1.6956623403638129E-014
  -9.6600000000000001          1.6312025956171989E-014
  -9.6000000000000014          1.5157748295057824E-014
  -9.5400000000000009          1.3453071028874996E-014
  -9.4800000000000004          1.1165906632336079E-014
  -9.4199999999999999          8.2747241554190884E-015
  -9.3600000000000012          4.7704431496238716E-015
  -9.3000000000000007          6.5823925126393992E-016
  -9.2400000000000002         -4.0407861842120706E-015
  -9.1799999999999997         -9.2881364547576187E-015
  -9.1200000000000010         -1.5026711161398097E-014
  -9.0600000000000005         -2.1179911225050607E-014
  -9.0000000000000000         -2.7651122322580336E-014
  -8.9400000000000013         -3.4323643071261686E-014
  -8.8800000000000008         -4.1061089571283731E-014
  -8.8200000000000003         -4.7708327172575614E-014
  -8.7599999999999998         -5.4092972798027640E-014
  -8.7000000000000011         -6.0027501096840287E-014
  -8.6400000000000006         -6.5311949726218178E-014
  -8.5800000000000001         -6.9737242520584362E-014
  -8.5200000000000014         -7.3089095315545826E-014
  -8.4600000000000009         -7.5152501859635762E-014
  -8.4000000000000004         -7.5716755819618430E-014
  -8.3399999999999999         -7.4580920188432826E-014
  -8.2800000000000011         -7.1559666112376212E-014
  -8.2200000000000006         -6.6489420890368604E-014
  -8.1600000000000001         -5.9234655351834203E-014
  -8.1000000000000014         -4.9694248416117027E-014
  -8.0400000000000009         -3.7807716091092886E-014
  -7.9800000000000004         -2.3561183152840656E-014
  -7.9200000000000017         -6.9929490610317910E-015
  -7.8599999999999994          1.1801566507425681E-014
  -7.8000000000000007          3.2665616479942396E-014
  -7.7400000000000020          5.5377914859033860E-014
  -7.6799999999999997          7.9650472539862637E-014
  -7.6200000000000010          1.0512777596786899E-013
  -7.5600000000000023          1.3138731322853011E-013
  -7.5000000000000000          1.5794170662006064E-013
  -7.4400000000000013          1.8424246087936743E-013
  -7.3799999999999990          2.0968549165322997E-013
  -7.3200000000000003          2.3361832089290544E-013
  -7.2600000000000016          2.5534915692002749E-013
  -7.1999999999999993          2.7415776728196559E-013
  -7.1400000000000006          2.8930788942027298E-013
  -7.0800000000000018          3.0006143784241487E-013
  -7.0199999999999996          3.0569389586822912E-013
  -6.9600000000000009          3.0551117895745046E-013
  -6.9000000000000021          2.9886730793072986E-013
  -6.8399999999999999          2.8518290315029077E-013
  -6.7800000000000011          2.6396395361699347E-013
  -6.7199999999999989          2.3482069007860086E-013
  -6.6600000000000001          1.9748603478718175E-013
  -6.6000000000000014          1.5183329233000736E-013
  -6.5399999999999991          9.7892565136956400E-014
  -6.4800000000000004          3.5865574778477506E-014
  -6.4200000000000017         -3.3861647351710088E-014
  -6.3599999999999994         -1.1070870244912589E-013
  -6.3000000000000007         -1.9389362304826731E-013
  -6.2400000000000020         -2.8242916111037101E-013
  -6.1799999999999997         -3.7512279339881146E-013
  -6.1200000000000010         -4.7058046988952961E-013
  -6.0600000000000023         -5.6721538999938665E-013
  -6.0000000000000000         -6.6326037905787057E-013
  -5.9400000000000013         -7.5678553246955048E-013
  -5.8799999999999990         -8.4572037955168236E-013
  -5.8200000000000003         -9.2788025643897626E-013
  -5.7600000000000016         -1.0009977252310867E-012
  -5.6999999999999993         -1.0627578995682273E-012
  -5.6400000000000006         -1.1108377343445475E-012
  -5.5800000000000018         -1.1429484365568317E-012
  -5.5199999999999996         -1.1568813460528866E-012
  -5.4600000000000009         -1.1505557944622258E-012
  -5.4000000000000021         -1.1220688034998016E-012
  -5.3399999999999999         -1.0697449123333221E-012
  -5.2800000000000011         -9.9218705385160249E-013
  -5.2200000000000024         -8.8832561010109999E-013
  -5.1600000000000001         -7.5746581577092620E-013
  -5.1000000000000014         -5.9933244647921713E-013
  -5.0399999999999991         -4.1411034895307888E-013
  -4.9800000000000004         -2.0248047149603385E-013
  -4.9200000000000017          3.4350330646587314E-014
  -4.8599999999999994          2.9462596560299754E-013
  -4.8000000000000007          5.7602531045994273E-013
  -4.7400000000000020          8.7565565241971689E-013
  -4.6799999999999997          1.1900538554512650E-012
  -4.6200000000000010          1.5151982125195571E-012
  -4.5600000000000023          1.8465307740431611E-012
  -4.5000000000000000          2.1789885941834814E-012
  -4.4400000000000013          2.5070475501735901E-012
  -4.3799999999999990          2.8247757236794930E-012
  -4.3200000000000003          3.1258972315808646E-012
  -4.2600000000000016          3.4038667512436077E-012
  -4.1999999999999993          3.6519537224581080E-012
  -4.1400000000000006          3.8633347242323919E-012
  -4.0800000000000018          4.0311950784607335E-012
  -4.0199999999999996          4.1488357934534082E-012
  -3.9600000000000009          4.2097885976718791E-012
  -3.9000000000000021          4.2079344872592214E-012
  -3.8399999999999999          4.1376236695993398E-012
  -3.7800000000000011          3.9938005909611419E-012
  -3.7200000000000024          3.7721249737157439E-012
  -3.6600000000000001          3.4690923993503113E-012
  -3.6000000000000014          3.0821514427760804E-012
  -3.5399999999999991          2.6098142698827750E-012
  -3.4800000000000004          2.0517589836995033E-012
  -3.4200000000000017          1.4089233076338719E-012
  -3.3599999999999994          6.8358610984061958E-013
  -3.3000000000000007         -1.2056406869637891E-013
  -3.2400000000000020         -9.9837637526941567E-013
  -3.1799999999999997         -1.9432005969340712E-012
  -3.1200000000000010         -2.9468696583392138E-012
  -3.0600000000000023         -3.9997007526193369E-012
  -3.0000000000000000         -5.0905165858367297E-012
  -2.9400000000000013         -6.2066913254443802E-012
  -2.8800000000000026         -7.3342156646724499E-012
  -2.8200000000000003         -8.4577840740294912E-012
  -2.7600000000000016         -9.5609136654812761E-012
  -2.6999999999999993         -1.0626072440078879E-011
  -2.6400000000000006         -1.1634844428942629E-011
  -2.5800000000000018         -1.2568108582429514E-011
  -2.5199999999999996         -1.3406240939846888E-011
  -2.4600000000000009         -1.4129341446957360E-011
  -2.4000000000000021         -1.4717472381471655E-011
  -2.3399999999999999         -1.5150922893153585E-011
  -2.2800000000000011         -1.5410479908828939E-011
  -2.2200000000000024         -1.5477721773575703E-011
  -2.1600000000000001         -1.5335311809369336E-011
  -2.1000000000000014         -1.4967303736611352E-011
  -2.0399999999999991         -1.4359455910087985E-011
  -1.9800000000000004         -1.3499539255111741E-011
  -1.9200000000000017         -1.2377644905350433E-011
  -1.8599999999999994         -1.0986485635394126E-011
  -1.8000000000000007         -9.3216827924208303E-012
  -1.7400000000000020         -7.3820454051321494E-012
  -1.6799999999999997         -5.1698215774616568E-012
  -1.6200000000000010         -2.6909298355237791E-012
  -1.5600000000000023          4.4838582008394652E-014
  -1.5000000000000000          3.0236505008366369E-012
  -1.4400000000000013          6.2274971582709105E-012
  -1.3800000000000026          9.6341075369548183E-012
  -1.3200000000000003          1.3216898108541436E-011
  -1.2600000000000016          1.6944985298677242E-011
  -1.1999999999999993          2.0783236247641033E-011
  -1.1400000000000006          2.4692385875702311E-011
  -1.0800000000000018          2.8629212017495875E-011
  -1.0199999999999996          3.2546763995933205E-011
 -0.96000000000000085          3.6394659829231889E-011
 -0.90000000000000213          4.0119443776466532E-011
 -0.83999999999999986          4.3665012370705715E-011
 -0.78000000000000114          4.6973100409110238E-011
 -0.72000000000000242          4.9983814702542385E-011
 -0.66000000000000014          5.2636253635184529E-011
 -0.60000000000000142          5.4869158681713482E-011
 -0.53999999999999915          5.6621625398416927E-011
 -0.48000000000000043          5.7833858545370298E-011
 -0.42000000000000171          5.8447970735072585E-011
 -0.35999999999999943          5.8408800450197004E-011
 -0.30000000000000071          5.7664777120770143E-011
 -0.24000000000000199          5.6168767294208127E-011
 -0.17999999999999972          5.3878968423804421E-011
 -0.12000000000000099          5.0759755360418563E-011
  -6.0000000000002274E-002     4.6782538769899961E-011
   0.0000000000000000          4.1926586155496744E-011
   5.9999999999998721E-002     3.6179793653326921E-011
  0.11999999999999744          2.9539422238173640E-011
  0.17999999999999972          2.2012763361775004E-011
  0.23999999999999844          1.3617715807048930E-011
  0.30000000000000071          4.3832901759605204E-012
  0.35999999999999943         -5.6499924983870286E-012
  0.41999999999999815         -1.6429821885952944E-011
  0.48000000000000043         -2.7891917413859840E-011
  0.53999999999999915         -3.9959997016067772E-011
  0.59999999999999787         -5.2545889003456110E-011
  0.66000000000000014         -6.5549745287721720E-011
  0.71999999999999886         -7.8860449391853674E-011
  0.77999999999999758         -9.2356146476590711E-011
  0.83999999999999986         -1.0590492731692320E-010
  0.89999999999999858         -1.1936568609041601E-010
  0.96000000000000085         -1.3258905874607461E-010
   1.0199999999999996         -1.4541859586612862E-010
   1.0799999999999983         -1.5769201437622670E-010
   1.1400000000000006         -1.6924253732343950E-010
   1.1999999999999993         -1.7990043402148695E-010
   1.2599999999999980         -1.8949460325737403E-010
   1.3200000000000003         -1.9785428067732980E-010
   1.3799999999999990         -2.0481075804382046E-010
   1.4399999999999977         -2.1019923481743655E-010
   1.5000000000000000         -2.1386058964951167E-010
   1.5599999999999987         -2.1564334833779524E-010
   1.6199999999999974         -2.1540546469564959E-010
   1.6799999999999997         -2.1301616708212926E-010
   1.7399999999999984         -2.0835772399200866E-010
   1.8000000000000007         -2.0132721857763664E-010
   1.8599999999999994         -1.9183816237713647E-010
   1.9199999999999982         -1.7982200813850429E-010
   1.9800000000000004         -1.6522958743853795E-010
   2.0399999999999991         -1.4803241704255221E-010
   2.0999999999999979         -1.2822377426134623E-010
   2.1600000000000001         -1.0581970534547383E-010
   2.2199999999999989         -8.0859825089133495E-011
   2.2799999999999976         -5.3407924974156923E-011
   2.3399999999999999         -2.3552398751614878E-011
   2.3999999999999986          8.5934993399272958E-012
   2.4599999999999973          4.2891597255896314E-011
   2.5199999999999996          7.9179020424995248E-011
   2.5799999999999983          1.1726838419822822E-010
   2.6400000000000006          1.5694839955971584E-010
   2.6999999999999993          1.9798460210786854E-010
   2.7599999999999980          2.4012000820548273E-010
   2.8200000000000003          2.8307637842440816E-010
   2.8799999999999990          3.2655521779617905E-010
   2.9399999999999977          3.7023907134908520E-010
   3.0000000000000000          4.1379302814425858E-010
   3.0599999999999987          4.5686623599526069E-010
   3.1199999999999974          4.9909346481297861E-010
   3.1799999999999997          5.4009690243827633E-010
   3.2399999999999984          5.7948799360380122E-010
   3.3000000000000007          6.1686924902598886E-010
   3.3599999999999994          6.5183622445950843E-010
   3.4199999999999982          6.8397955212483148E-010
   3.4800000000000004          7.1288706265652449E-010
   3.5399999999999991          7.3814581460880556E-010
   3.5999999999999979          7.5934428958411093E-010
   3.6600000000000001          7.7607454350833111E-010
   3.7199999999999989          7.8793476816623037E-010
   3.7799999999999976          7.9453126542953400E-010
   3.8399999999999999          7.9548118932621719E-010
   3.8999999999999986          7.9041477232282626E-010
   3.9599999999999973          7.7897797781796416E-010
   4.0199999999999996          7.6083520520137957E-010
   4.0799999999999983          7.3567189941275687E-010
   4.1400000000000006          7.0319737632682190E-010
   4.1999999999999993          6.6314773370226205E-010
   4.2599999999999980          6.1528892101070531E-010
   4.3200000000000003          5.5941974356859788E-010
   4.3799999999999990          4.9537504417467036E-010
   4.4399999999999977          4.2302889884183563E-010
   4.5000000000000000          3.4229804809368235E-010
   4.5599999999999987          2.5314518189453977E-010
   4.6199999999999974          1.5558229531880402E-010
   4.6799999999999997          4.9674138571329842E-011
   4.7399999999999984         -6.4458440160810561E-011
   4.7999999999999972         -1.8663528845812825E-010
   4.8599999999999994         -3.1661360810185170E-010
   4.9199999999999982         -4.5408504219808530E-010
   4.9800000000000004         -5.9867278634800481E-010
   5.0399999999999991         -7.4992925471969528E-010
   5.0999999999999979         -9.0733325785182534E-010
   5.1600000000000001         -1.0702886179089878E-009
   5.2199999999999989         -1.2381224668044322E-009
   5.2799999999999976         -1.4100840686918226E-009
   5.3399999999999999         -1.5853446794213313E-009
   5.3999999999999986         -1.7629974821387646E-009
   5.4599999999999973         -1.9420585568938438E-009
   5.5199999999999996         -2.1214678030441817E-009
   5.5799999999999983         -2.3000922287355488E-009
   5.6400000000000006         -2.4767279026725421E-009
   5.6999999999999993         -2.6501046632523917E-009
   5.7599999999999980         -2.8188904191088334E-009
   5.8200000000000003         -2.9816969388899515E-009
   5.8799999999999990         -3.1370864178544698E-009
   5.9399999999999977         -3.2835789737998230E-009
   6.0000000000000000         -3.4196607137291641E-009
   6.0599999999999987         -3.5437934123585545E-009
   6.1199999999999974         -3.6544238745126470E-009
   6.1799999999999997         -3.7499961710373843E-009
   6.2399999999999984         -3.8289614356233024E-009
   6.2999999999999972         -3.8897912143003489E-009
   6.3599999999999994         -3.9309913245559793E-009
   6.4199999999999982         -3.9511133843771042E-009
   6.4800000000000004         -3.9487701991192246E-009
   6.5399999999999991         -3.9226485916541119E-009
   6.5999999999999979         -3.8715259600252579E-009
   6.6600000000000001         -3.7942838666411090E-009
   6.7199999999999989         -3.6899221813297472E-009
   6.7799999999999976         -3.5575745296171935E-009
   6.8399999999999999         -3.3965221799017441E-009
   6.8999999999999986         -3.2062081483688475E-009
   6.9599999999999973         -2.9862504070415551E-009
   7.0199999999999996         -2.7364555279045406E-009
   7.0799999999999983         -2.4568297001629231E-009
   7.1400000000000006         -2.1475912714471112E-009
   7.1999999999999993         -1.8091802272862518E-009
   7.2599999999999980         -1.4422679552728148E-009
   7.3200000000000003         -1.0477650773988565E-009
   7.3799999999999990         -6.2682863867619476E-010
   7.4399999999999977         -1.8086760643265299E-010
   7.5000000000000000          2.8845284916792501E-010
   7.5599999999999987          7.7920889177915503E-010
   7.6199999999999974          1.2892159612290574E-009
   7.6799999999999997          1.8160303223910720E-009
   7.7399999999999984          2.3569495938929786E-009
   7.7999999999999972          2.9090170292677278E-009
   7.8599999999999994          3.4690256989509090E-009
   7.9199999999999982          4.0335259166644776E-009
   7.9800000000000004          4.5988328455923268E-009
   8.0399999999999991          5.1610371129288405E-009
   8.1000000000000014          5.7160141964925773E-009
   8.1599999999999966          6.2594400760147902E-009
   8.2199999999999989          6.7868018471335739E-009
   8.2800000000000011          7.2934145840212753E-009
   8.3399999999999963          7.7744421389671197E-009
   8.3999999999999986          8.2249108275042191E-009
   8.4600000000000009          8.6397303220588125E-009
   8.5199999999999960          9.0137138408864610E-009
   8.5799999999999983          9.3416023524568356E-009
   8.6400000000000006          9.6180861715416036E-009