  -24.000000000000000          0.0000000000000000     
  -23.940000000000001          0.0000000000000000     
  -23.879999999999999          0.0000000000000000     
  -23.820000000000000          0.0000000000000000     
  -23.760000000000002          0.0000000000000000     
  -23.699999999999999          0.0000000000000000     
  -23.640000000000001          0.0000000000000000     
  -23.579999999999998          0.0000000000000000     
  -23.520000000000000          0.0000000000000000     
  -23.460000000000001          0.0000000000000000     
  -23.399999999999999          0.0000000000000000     
  -23.340000000000000          0.0000000000000000     
  -23.280000000000001          0.0000000000000000     
  -23.219999999999999          0.0000000000000000     
  -23.160000000000000          0.0000000000000000     
  -23.100000000000001          0.0000000000000000     
  -23.039999999999999          0.0000000000000000     
  -22.980000000000000          0.0000000000000000     
  -22.920000000000002          0.0000000000000000     
  -22.859999999999999          0.0000000000000000     
  -22.800000000000001          0.0000000000000000     
  -22.739999999999998          0.0000000000000000     
  -22.680000000000000          0.0000000000000000     
  -22.620000000000001          0.0000000000000000     
  -22.559999999999999          0.0000000000000000     
  -22.500000000000000          0.0000000000000000     
  -22.440000000000001          0.0000000000000000     
  -22.379999999999999          0.0000000000000000     
  -22.320000000000000          0.0000000000000000     
  -22.260000000000002          0.0000000000000000     
  -22.199999999999999          0.0000000000000000     
  -22.140000000000001          0.0000000000000000     
  -22.079999999999998         -1.0895403816186370E-040
  -22.020000000000000         -2.5220346343090554E-040
  -21.960000000000001         -5.5491382302497422E-040
  -21.899999999999999         -1.2030161091370600E-039
  -21.840000000000000         -2.0161617363990058E-039
  -21.780000000000001         -3.3033481059841647E-039
  -21.719999999999999         -4.7758081136459144E-039
  -21.660000000000000         -6.6321153122624117E-039
  -21.600000000000001         -9.2954264148479035E-039
  -21.539999999999999         -1.3424294355233272E-038
  -21.480000000000000         -1.8659478786222053E-038
  -21.420000000000002         -2.7525958247383013E-038
  -21.359999999999999         -4.1780230373072029E-038
  -21.300000000000001         -6.2581138194470549E-038
  -21.240000000000002         -9.1581225664146377E-038
  -21.180000000000000         -1.3217658962704605E-037
  -21.120000000000001         -1.8457565918618279E-037
  -21.059999999999999         -2.5597416977330674E-037
  -21.000000000000000         -3.4799156434779859E-037
  -20.940000000000001         -4.6813980028772950E-037
  -20.879999999999999         -6.1576997408416144E-037
  -20.820000000000000         -7.9469798139475847E-037
  -20.760000000000002         -1.0069448658495903E-036
  -20.699999999999999         -1.2420294544077973E-036
  -20.640000000000001         -1.4817424162785659E-036
  -20.579999999999998         -1.6839449723832679E-036
  -20.520000000000000         -1.8044261321353515E-036
  -20.460000000000001         -1.7647440461458579E-036
  -20.399999999999999         -1.4700546576874959E-036
  -20.340000000000000         -7.3891028272004111E-037
  -20.280000000000001          5.9133585027343434E-037
  -20.219999999999999          2.7774212819926044E-036
  -20.160000000000000          6.1047369338252689E-036
  -20.100000000000001          1.0913537922280357E-035
  -20.039999999999999          1.7572042196199896E-035
  -19.980000000000000          2.6467506667685525E-035
  -19.920000000000002          3.7927769706472569E-035
  -19.859999999999999          5.2224510736189421E-035
  -19.800000000000001          6.9456771863791959E-035
  -19.740000000000002          8.9459393229118352E-035
  -19.680000000000000          1.1168227450811470E-034
  -19.620000000000001          1.3500864471036066E-034
  -19.560000000000002          1.5757954870125141E-034
  -19.500000000000000          1.7668685355326345E-034
  -19.440000000000001          1.8839906702828548E-034
  -19.379999999999999          1.8747067137901940E-034
  -19.320000000000000          1.6718184183574834E-034
  -19.259999999999998          1.1918615492921602E-034
  -19.199999999999999          3.3531057302887903E-035
  -19.140000000000001         -1.0114776497344015E-034
  -19.079999999999998         -2.9724384207361575E-034
  -19.020000000000000         -5.6752474537525503E-034
  -18.960000000000001         -9.2411443817054229E-034
  -18.899999999999999         -1.3770649340689690E-033
  -18.840000000000000         -1.9324418599913168E-033
  -18.780000000000001         -2.5899586073643112E-033
  -18.719999999999999         -3.3400573450373948E-033
  -18.660000000000000         -4.1605263736615683E-033
  -18.600000000000001         -5.0126471360397911E-033
  -18.539999999999999         -5.8372973653098004E-033
  -18.480000000000000         -6.5508792043790772E-033
  -18.420000000000002         -7.0416794596209568E-033
  -18.359999999999999         -7.1670850579821011E-033
  -18.300000000000001         -6.7521523464130756E-033
  -18.240000000000002         -5.5902554936203702E-033
  -18.180000000000000         -3.4466235679271416E-033
  -18.120000000000001         -6.5611406831162512E-035
  -18.060000000000002          4.8173672222767816E-033
  -18.000000000000000          1.1458377111815675E-032
  -17.940000000000001          2.0081153599629743E-032
  -17.879999999999999          3.0846361297796415E-032
  -17.820000000000000          4.3813572046309278E-032
  -17.759999999999998          5.8896192842372020E-032
  -17.699999999999999          7.5810019457691637E-032
  -17.640000000000001          9.4016937659971489E-032
  -17.579999999999998          1.1266618151805532E-031
  -17.520000000000000          1.3053662323477778E-031
  -17.460000000000001          1.4598473209845346E-031
  -17.399999999999999          1.5690411883373067E-031
  -17.340000000000000          1.6070368384598839E-031
  -17.280000000000001          1.5431300586439595E-031
  -17.219999999999999          1.3422380900879918E-031
  -17.160000000000000          9.6577967759819570E-032
  -17.100000000000001          3.7311824990252094E-032
  -17.039999999999999         -4.7633222415680376E-032
  -16.980000000000000         -1.6202563116469461E-031
  -16.920000000000002         -3.0897796000094991E-031
  -16.859999999999999         -4.9049774141507582E-031
  -16.800000000000001         -7.0695717625523596E-031
  -16.740000000000002         -9.5648985819587371E-031
  -16.680000000000000         -1.2343305914668238E-030
  -16.620000000000001         -1.5321231179914870E-030
  -16.560000000000002         -1.8372310995418814E-030
  -16.500000000000000         -2.1320983946109888E-030
  -16.440000000000001         -2.3937169503672071E-030
  -16.379999999999999         -2.5932716285024024E-030
  -16.320000000000000         -2.6960426935910694E-030
  -16.260000000000002         -2.6616543587975505E-030
  -16.199999999999999         -2.4447660147303397E-030
  -16.140000000000001         -1.9963011493496204E-030
  -16.079999999999998         -1.2653080649887457E-030
  -16.020000000000000         -2.0153564917009578E-031
  -15.960000000000001          1.2412120563078445E-030
  -15.900000000000000          3.1009100628627157E-030
  -15.840000000000000          5.4023377069721016E-030
  -15.780000000000001          8.1513459297593377E-030
  -15.720000000000001          1.1328492119384625E-029
  -15.660000000000000          1.4882218529525948E-029
  -15.600000000000000          1.8721862001506982E-029
  -15.540000000000001          2.2710844334143368E-029
  -15.480000000000000          2.6660508155415590E-029
  -15.420000000000000          3.0325156552986510E-029
  -15.359999999999999          3.3398920265618813E-029
  -15.300000000000001          3.5515202838638380E-029
  -15.240000000000000          3.6249467526569998E-029
  -15.180000000000000          3.5126173545300224E-029
  -15.120000000000001          3.1630696282537379E-029
  -15.060000000000000          2.5226940351957774E-029
  -15.000000000000000          1.5381304428184374E-029
  -14.940000000000000          1.5934915600037410E-030
  -14.880000000000001         -1.6565700846216633E-029
  -14.820000000000000         -3.9409672968775620E-029
  -14.760000000000000         -6.7084956425018460E-029
  -14.700000000000001         -9.9514826446316973E-029
  -14.640000000000001         -1.3633921669841428E-028
  -14.580000000000000         -1.7685319319782592E-028
  -14.520000000000000         -2.1994680218599945E-028
  -14.460000000000001         -2.6405008563080166E-028
  -14.400000000000000         -3.0708757277741783E-028
  -14.340000000000000         -3.4644715682652288E-028
  -14.280000000000001         -3.7896887089568909E-028
  -14.220000000000001         -4.0095961567966696E-028
  -14.160000000000000         -4.0823987208349882E-028
  -14.100000000000000         -3.9622849109756198E-028
  -14.040000000000001         -3.6007138876919820E-028
  -13.980000000000000         -2.9481847951810913E-028
  -13.920000000000000         -1.9565284091001814E-028
  -13.860000000000001         -5.8174271446471391E-029
  -13.800000000000001          1.2126438571216002E-028
  -13.740000000000000          3.4516982352366667E-028
  -13.680000000000000          6.1447796731506549E-028
  -13.620000000000001          9.2808998864480179E-028
  -13.560000000000000          1.2823904263347090E-027
  -13.500000000000000          1.6707660353160794E-027
  -13.440000000000001          2.0831502766112220E-027
  -13.380000000000001          2.5056212673872070E-027
  -13.320000000000000          2.9200867982320065E-027
  -13.260000000000000          3.3040947069218347E-027
  -13.200000000000001          3.6308062702571083E-027
  -13.140000000000001          3.8691763945967552E-027
  -13.080000000000000          3.9843822855617068E-027
  -13.020000000000000          3.9385394352549316E-027
  -12.960000000000001          3.6917431545651582E-027
  -12.900000000000000          3.2034615239186025E-027
  -12.840000000000000          2.4343011166756803E-027
  -12.780000000000001          1.3481524151238749E-027
  -12.720000000000001         -8.5297390058962783E-029
  -12.660000000000000         -1.8877134809161030E-027
  -12.600000000000000         -4.0689755018600520E-027
  -12.540000000000001         -6.6238332816954545E-027
  -12.480000000000000         -9.5284566681756711E-027
  -12.420000000000000         -1.2737020802711505E-026
  -12.360000000000001         -1.6178486633793877E-026
  -12.300000000000001         -1.9753766297012848E-026
  -12.240000000000000         -2.3333501886895792E-026
  -12.180000000000000         -2.6756684218524285E-026
  -12.120000000000001         -2.9830380402927129E-026
  -12.060000000000000         -3.2330828735521161E-026
  -12.000000000000000         -3.4006166623371862E-026
  -11.940000000000001         -3.4581033170643819E-026
  -11.880000000000001         -3.3763281606778463E-026
  -11.820000000000000         -3.1252957441137581E-026
  -11.760000000000000         -2.6753681768326251E-026
  -11.700000000000001         -1.9986455942570490E-026
  -11.640000000000001         -1.0705840162369369E-026
  -11.580000000000000          1.2816852824077408E-027
  -11.520000000000000          1.6097477863169610E-026
  -11.460000000000001          3.3769076467793480E-026
  -11.400000000000000          5.4207745042666635E-026
  -11.340000000000000          7.7185982816411963E-026
  -11.280000000000001          1.0231602369213964E-025
  -11.220000000000001          1.2903033532283754E-025
  -11.160000000000000          1.5656551078379800E-025
  -11.100000000000000          1.8395078525462213E-025
  -11.040000000000001          2.1000288351420984E-025
  -10.980000000000000          2.3332851043611708E-025
  -10.920000000000000          2.5233617389118585E-025
  -10.860000000000001          2.6525873440616593E-025
  -10.800000000000001          2.7018811991415372E-025
  -10.740000000000000          2.6512318946321933E-025
  -10.680000000000000          2.4803164675359967E-025
  -10.620000000000001          2.1692623449168546E-025
  -10.560000000000000          1.6995540882205611E-025
  -10.500000000000000          1.0550740394972961E-025
  -10.440000000000001          2.2326481075137272E-026
  -10.380000000000001         -8.0360824846808438E-026
  -10.320000000000000         -2.0271256183485768E-025
  -10.260000000000000         -3.4413515399600816E-025
  -10.200000000000001         -5.0314906944577182E-025
  -10.140000000000001         -6.7726183813523898E-025
  -10.080000000000000         -8.6285510876720608E-025
  -10.020000000000001         -1.0550930231362437E-024
  -9.9600000000000009         -1.2478596011522583E-024
  -9.9000000000000004         -1.4337335653810788E-024
  -9.8399999999999999         -1.6040090313563061E-024
  -9.7800000000000011         -1.7487697912359912E-024
  -9.7200000000000006         -1.8570256402578904E-024
  -9.6600000000000001         -1.9169173873164292E-024
  -9.6000000000000014         -1.9159963643432268E-024
  -9.5400000000000009         -1.8415809416982558E-024
  -9.4800000000000004         -1.6811938457931201E-024
  -9.4199999999999999         -1.4230766326989412E-024
  -9.3600000000000012         -1.0567792315551884E-024
  -9.3000000000000007         -5.7381421796576667E-025
  -9.2400000000000002          3.1633697006687710E-026
  -9.1799999999999997          7.6196173790826925E-025
  -9.1200000000000010          1.6153857706361857E-024
  -9.0600000000000005          2.5851850400730850E-024
  -9.0000000000000000          3.6589854191540551E-024
  -8.9400000000000013          4.8181141488588821E-024
  -8.8800000000000008          6.0370616320326682E-024
  -8.8200000000000003          7.2830950519320464E-024
  -8.7599999999999998          8.5160621145390967E-024
  -8.7000000000000011          9.6884251895685350E-024
  -8.6400000000000006          1.0745574462406095E-023
  -8.5800000000000001          1.1626453900508335E-023
  -8.5200000000000014          1.2264536471210029E-023
  -8.4600000000000009          1.2589178761396393E-023
  -8.4000000000000004          1.2527380088296923E-023
  -8.3399999999999999          1.2005937976558678E-023
  -8.2800000000000011          1.0954025664100879E-023
  -8.2200000000000006          9.3061434561650545E-024
  -8.1600000000000001          7.0054331656740659E-024
  -8.1000000000000014          4.0072909955748929E-024
  -8.0400000000000009          2.8320024972139607E-025
  -7.9800000000000004         -4.1752935384863687E-024
  -7.9200000000000017         -9.3526002267494247E-024
  -7.8599999999999994         -1.5205211563759163E-023
  -7.8000000000000007         -2.1658112378966906E-023
  -7.7400000000000020         -2.8601629913206278E-023
  -7.6799999999999997         -3.5888918343467644E-023
  -7.6200000000000010         -4.3334283667642376E-023
  -7.5600000000000023         -5.0712522619605452E-023
  -7.5000000000000000         -5.7759504210448786E-023
  -7.4400000000000013         -6.4174184681877676E-023
  -7.3799999999999990         -6.9622217547989724E-023
  -7.3200000000000003         -7.3741331228344556E-023
  -7.2600000000000016         -7.6148561451592225E-023
  -7.1999999999999993         -7.6449464822937981E-023
  -7.1400000000000006         -7.4249296132527100E-023
  -7.0800000000000018         -6.9166115683246471E-023
  -7.0199999999999996         -6.0845723043665464E-023
  -6.9600000000000009         -4.8978266735547802E-023
  -6.9000000000000021         -3.3316161271318084E-023
  -6.8399999999999999         -1.3693057429167448E-023
  -6.7800000000000011          9.9566749782925367E-024
  -6.7199999999999989          3.7578441792503346E-023
  -6.6600000000000001          6.8978574507027947E-023
  -6.6000000000000014          1.0380685446783241E-022
  -6.5399999999999991          1.4154112947060092E-022
  -6.4800000000000004          1.8147499844489011E-022
  -6.4200000000000017          2.2270933234452927E-022
  -6.3599999999999994          2.6414858213513022E-022
  -6.3000000000000007          3.0450282665823651E-022
  -6.2400000000000020          3.4229629122358441E-022
  -6.1799999999999997          3.7588318644121358E-022
  -6.1200000000000010          4.0347154890834249E-022
  -6.0600000000000023          4.2315565317119490E-022
  -6.0000000000000000          4.3295714781348332E-022
  -5.9400000000000013          4.3087525579459653E-022
  -5.8799999999999990          4.1494560257822698E-022
  -5.8200000000000003          3.8330766783585905E-022
  -5.7600000000000016          3.3427951019802101E-022
  -5.6999999999999993          2.6643907067098946E-022
  -5.6400000000000006          1.7871039861630500E-022
  -5.5800000000000018          7.0452785027489436E-023
  -5.5199999999999996         -5.8449332011873980E-023
  -5.4600000000000009         -2.0749825827034385E-022
  -5.4000000000000021         -3.7549997875873524E-022
  -5.3399999999999999         -5.6048920542209399E-022
  -5.2800000000000011         -7.5966606062276852E-022
  -5.2200000000000024         -9.6934847975627725E-022
  -5.1600000000000001         -1.1849430286508938E-021
  -5.1000000000000014         -1.4009399977993478E-021
  -5.0399999999999991         -1.6109334071406691E-021
  -4.9800000000000004         -1.8076726186224701E-021
  -4.9200000000000017         -1.9831461502794636E-021
  -4.8599999999999994         -2.1287003351698877E-021
  -4.8000000000000007         -2.2351965550091361E-021
  -4.7400000000000020         -2.2932050529482980E-021
  -4.6799999999999997         -2.2932378481291716E-021
  -4.6200000000000010         -2.2260174687924351E-021
  -4.5600000000000023         -2.0827808440208136E-021
  -4.5000000000000000         -1.8556125954071609E-021
  -4.4400000000000013         -1.5378049159858990E-021
  -4.3799999999999990         -1.1242346383148262E-021
  -4.3200000000000003         -6.1175016055665649E-022
  -4.2600000000000016          4.3837682569491103E-025
  -4.1999999999999993          7.1038271481492784E-022
  -4.1400000000000006          1.5130415108981046E-021
  -4.0800000000000018          2.3999610831413737E-021
  -4.0199999999999996          3.3590075387457760E-021
  -3.9600000000000009          4.3741639318040373E-021
  -3.9000000000000021          5.4254076758513271E-021
  -3.8399999999999999          6.4886825006110965E-021
  -3.7800000000000011          7.5359807042393033E-021
  -3.7200000000000024          8.5355463769450463E-021
  -3.6600000000000001          9.4522134857443908E-021
  -3.6000000000000014          1.0247885130974053E-020
  -3.5399999999999991          1.0882165385114321E-020
  -3.4800000000000004          1.1313141580505804E-020
  -3.4200000000000017          1.1498318356875455E-020
  -3.3599999999999994          1.1395700918541251E-020
  -3.3000000000000007          1.0965014559411877E-020
  -3.2400000000000020          1.0169051895658482E-020
  -3.1799999999999997          8.9751205605506747E-021
  -3.1200000000000010          7.3565705945422711E-021
  -3.0600000000000023          5.2943706793841672E-021
  -3.0000000000000000          2.7786945775287456E-021
  -2.9400000000000013         -1.8951453068036611E-022
  -2.8800000000000026         -3.5970585351339848E-021
  -2.8200000000000003         -7.4171267831148527E-021
  -2.7600000000000016         -1.1608105441112279E-020
  -2.6999999999999993         -1.6112624094185851E-020
  -2.6400000000000006         -2.0856886841305880E-020
  -2.5800000000000018         -2.5750348333497889E-020
  -2.5199999999999996         -3.0685779354316687E-020
  -2.4600000000000009         -3.5539786380358059E-020
  -2.4000000000000021         -4.0173815320920200E-020
  -2.3399999999999999         -4.4435681383507064E-020
  -2.2800000000000011         -4.8161674920536744E-020
  -2.2200000000000024         -5.1179204149592241E-020
  -2.1600000000000001         -5.3310060416283308E-020
  -2.1000000000000014         -5.4374225036877608E-020
  -2.0399999999999991         -5.4194233194643673E-020
  -1.9800000000000004         -5.2600051073375511E-020
  -1.9200000000000017         -4.9434376381130406E-020
  -1.8599999999999994         -4.4558340332704608E-020
  -1.8000000000000007         -3.7857452731332903E-020
  -1.7400000000000020         -2.9247707088556029E-020
  -1.6799999999999997         -1.8681736322434871E-020
  -1.6200000000000010         -6.1547843392653945E-021
  -1.5600000000000023          8.2895491548404541E-021
  -1.5000000000000000          2.4554092303393462E-020
  -1.4400000000000013          4.2483500376790011E-020
  -1.3800000000000026          6.1860546786692439E-020
  -1.3200000000000003          8.2403432135428642E-020
  -1.2600000000000016          1.0376434937018728E-019
  -1.1999999999999993          1.2552949197910821E-019
  -1.1400000000000006          1.4722064424293662E-019
  -1.0800000000000018          1.6829857740638589E-019
  -1.0199999999999996          1.8816825441539388E-019
 -0.96000000000000085          2.0618611916599224E-019
 -0.90000000000000213          2.2166942945651969E-019
 -0.83999999999999986          2.3390761124586119E-019
 -0.78000000000000114          2.4217579345127977E-019
 -0.72000000000000242          2.4575020866465586E-019
 -0.66000000000000014          2.4392560202903962E-019
 -0.60000000000000142          2.3603412004729631E-019
 -0.53999999999999915          2.2146585537640016E-019
 -0.48000000000000043          1.9969035105197397E-019
 -0.42000000000000171          1.7027885751052815E-019
 -0.35999999999999943          1.3292702870656001E-019
 -0.30000000000000071          8.7477410660745062E-020
 -0.24000000000000199          3.3941000424801870E-020
 -0.17999999999999972         -2.7482095447046725E-020
 -0.12000000000000099         -9.6384182650151997E-020
  -6.0000000000002274E-002    -1.7213401691411771E-019
   0.0000000000000000         -2.5386394596461318E-019
   5.9999999999998721E-002    -3.4046099000313958E-019
  0.11999999999999744         -4.3056235297665195E-019
  0.17999999999999972         -5.2255616983110416E-019
  0.23999999999999844         -6.1458789153967060E-019
  0.30000000000000071         -7.0457278768698282E-019
  0.35999999999999943         -7.9021516058080901E-019
  0.41999999999999815         -8.6903450783912967E-019
  0.48000000000000043         -9.3839866801143527E-019
  0.53999999999999915         -9.9556428977320748E-019
  0.59999999999999787         -1.0377245226546992E-018
  0.66000000000000014         -1.0620633556330641E-018
  0.71999999999999886         -1.0658165659222060E-018
  0.77999999999999758         -1.0463385857762251E-018
  0.83999999999999986         -1.0011741125851798E-018
  0.89999999999999858         -9.2813433370794304E-019
  0.96000000000000085         -8.2537550888924991E-019
   1.0199999999999996         -6.9147943043659286E-019
   1.0799999999999983         -5.2553360315856600E-019
   1.1400000000000006         -3.2720972895756323E-019
   1.1999999999999993         -9.6838888260779963E-020
   1.2599999999999980          1.6451919500080606E-019
   1.3200000000000003          4.5501443158324649E-019
   1.3799999999999990          7.7195425131016547E-019
   1.4399999999999977          1.1117636727206644E-018
   1.5000000000000000          1.4699591595026382E-018
   1.5599999999999987          1.8411388353085747E-018
   1.6199999999999974          2.2189904232610312E-018
   1.6799999999999997          2.5963195025725917E-018
   1.7399999999999984          2.9650981180065602E-018
   1.8000000000000007          3.3165377054701613E-018
   1.8599999999999994          3.6411839244352886E-018
   1.9199999999999982          3.9290370865497064E-018
   1.9800000000000004          4.1696959014483134E-018
   2.0399999999999991          4.3525259485465052E-018
   2.0999999999999979          4.4668505279419717E-018
   2.1600000000000001          4.5021655753204659E-018
   2.2199999999999989          4.4483715118084568E-018
   2.2799999999999976          4.2960232942599685E-018
   2.3399999999999999          4.0365973293298270E-018
   2.3999999999999986          3.6627644898964004E-018
   2.4599999999999973          3.1686723042497441E-018
   2.5199999999999996          2.5502276720554932E-018
   2.5799999999999983          1.8053745782021444E-018
   2.6400000000000006          9.3436292741080731E-019
   2.6999999999999993         -6.0001235664050255E-020
   2.7599999999999980         -1.1721260162271390E-018
   2.8200000000000003         -2.3934353992214034E-018
   2.8799999999999990         -3.7122086852418622E-018
   2.9399999999999977         -5.1134626125065461E-018
   3.0000000000000000         -6.5788839488689064E-018
   3.0599999999999987         -8.0868216887634417E-018
   3.1199999999999974         -9.6123404021911073E-018
   3.1799999999999997         -1.1127345849776119E-017
   3.2399999999999984         -1.2600782679133861E-017
   3.3000000000000007         -1.3998909657136715E-017
   3.3599999999999994         -1.5285661376186181E-017
   3.4199999999999982         -1.6423081162027795E-017
   3.4800000000000004         -1.7371850859924095E-017
   3.5399999999999991         -1.8091893850115351E-017
   3.5999999999999979         -1.8543060532997441E-017
   3.6600000000000001         -1.8685882512871163E-017
   3.7199999999999989         -1.8482404734225786E-017
   3.7799999999999976         -1.7897069564136547E-017
   3.8399999999999999         -1.6897647402402726E-017
   3.8999999999999986         -1.5456214395762079E-017
   3.9599999999999973         -1.3550144780157181E-017
   4.0199999999999996         -1.1163109222168446E-017
   4.0799999999999983         -8.2860645720437365E-018
   4.1400000000000006         -4.9182144056926760E-018
   4.1999999999999993         -1.0679145046999163E-018
   4.2599999999999980          3.2465038669613539E-018
   4.3200000000000003          7.9959815439394864E-018
   4.3799999999999990          1.3140132031239224E-017
   4.4399999999999977          1.8626761691267045E-017
   4.5000000000000000          2.4391574799172654E-017
   4.5599999999999987          3.0358050369654348E-017
   4.6199999999999974          3.6437550512709111E-017
   4.6799999999999997          4.2529643976266022E-017
   4.7399999999999984          4.8522698130762165E-017
   4.7999999999999972          5.4294713545171014E-017
   4.8599999999999994          5.9714456134756542E-017
   4.9199999999999982          6.4642861431209735E-017
   4.9800000000000004          6.8934736306340227E-017
   5.0399999999999991          7.2440740560413642E-017
   5.0999999999999979          7.5009658470556523E-017
   5.1600000000000001          7.6490936659442220E-017
   5.2199999999999989          7.6737471111712784E-017
   5.2799999999999976          7.5608625356328358E-017
   5.3399999999999999          7.2973436582535270E-017
   5.3999999999999986          6.8714018166532260E-017
   5.4599999999999973          6.2729004364384784E-017
   5.5199999999999996          5.4937151335763768E-017
   5.5799999999999983          4.5280864679191813E-017
   5.6400000000000006          3.3729744389535894E-017
   5.6999999999999993          2.0283938266723940E-017
   5.7599999999999980          4.9773644302166669E-018
   5.8200000000000003         -1.2119367726417381E-017
   5.8799999999999990         -3.0896383356506373E-017
   5.9399999999999977         -5.1202385646470835E-017
   6.0000000000000000         -7.2843006774509541E-017
   6.0599999999999987         -9.5579759230356102E-017
   6.1199999999999974         -1.1912964950163630E-016
   6.1799999999999997         -1.4316550238257777E-016
   6.2399999999999984         -1.6731718860120988E-016
   6.2999999999999972         -1.9117352761849777E-016
   6.3599999999999994         -2.1428532292186578E-016
   6.4199999999999982         -2.3616923918385810E-016
   6.4800000000000004         -2.5631265009545551E-016
   6.5399999999999991         -2.7417953613860232E-016
   6.5999999999999979         -2.8921731444745114E-016
   6.6600000000000001         -3.0086473153119968E-016
   6.7199999999999989         -3.0856056449236527E-016
   6.7799999999999976         -3.1175332678486276E-016
   6.8399999999999999         -3.0991163054483195E-016
   6.8999999999999986         -3.0253532530884470E-016
   6.9599999999999973         -2.8916718546019245E-016
   7.0199999999999996         -2.6940503960443243E-016
   7.0799999999999983         -2.4291402085068719E-016
   7.1400000000000006         -2.0943912512103428E-016
   7.1999999999999993         -1.6881743864646498E-016
   7.2599999999999980         -1.2099003948023854E-016
   7.3200000000000003         -6.6013414669637762E-017
   7.3799999999999990         -4.0699478929627716E-018
   7.4399999999999977          6.4522724984545834E-017
   7.5000000000000000          1.3930354126431587E-016
   7.5599999999999987          2.1966166867175555E-016
   7.6199999999999974          3.0483188319703900E-016
   7.6799999999999997          3.9389208904416169E-016
   7.7399999999999984          4.8576332749343611E-016
   7.7999999999999972          5.7921213519329923E-016
   7.8599999999999994          6.7285602961914543E-016
   7.9199999999999982          7.6517153483014985E-016
   7.9800000000000004          8.5450580941009546E-016
   8.0399999999999991          9.3909080752077277E-016
   8.1000000000000014          1.0170613045991245E-015
   8.1599999999999966          1.0864757606193931E-015
   8.2199999999999989          1.1453406394334557E-015
   8.2800000000000011          1.1916376077510832E-015
   8.3399999999999963          1.2233538313895224E-015
   8.3999999999999986          1.2385148180572632E-015
   8.4600000000000009          1.2352198719969661E-015
   8.5199999999999960          1.2116794368371031E-015
   8.5799999999999983          1.1662541844933602E-015
   8.6400000000000006          1.0974951198967104E-015