  -24.000000000000000          0.0000000000000000     
  -23.940000000000001          0.0000000000000000     
  -23.879999999999999          0.0000000000000000     
  -23.820000000000000          0.0000000000000000     
  -23.760000000000002          0.0000000000000000     
  -23.699999999999999          0.0000000000000000     
  -23.640000000000001          0.0000000000000000     
  -23.579999999999998          0.0000000000000000     
  -23.520000000000000          0.0000000000000000     
  -23.460000000000001          0.0000000000000000     
  -23.399999999999999          0.0000000000000000     
  -23.340000000000000          0.0000000000000000     
  -23.280000000000001          0.0000000000000000     
  -23.219999999999999          0.0000000000000000     
  -23.160000000000000          0.0000000000000000     
  -23.100000000000001          0.0000000000000000     
  -23.039999999999999          0.0000000000000000     
  -22.980000000000000          0.0000000000000000     
  -22.920000000000002          0.0000000000000000     
  -22.859999999999999          0.0000000000000000     
  -22.800000000000001          0.0000000000000000     
  -22.739999999999998          0.0000000000000000     
  -22.680000000000000          0.0000000000000000     
  -22.620000000000001          0.0000000000000000     
  -22.559999999999999          0.0000000000000000     
  -22.500000000000000          0.0000000000000000     
  -22.440000000000001          0.0000000000000000     
  -22.379999999999999          0.0000000000000000     
  -22.320000000000000          0.0000000000000000     
  -22.260000000000002          0.0000000000000000     
  -22.199999999999999          0.0000000000000000     
  -22.140000000000001          0.0000000000000000     
  -22.079999999999998          0.0000000000000000     
  -22.020000000000000          0.0000000000000000     
  -21.960000000000001          0.0000000000000000     
  -21.899999999999999          0.0000000000000000     
  -21.840000000000000          0.0000000000000000     
  -21.780000000000001          0.0000000000000000     
  -21.719999999999999          0.0000000000000000     
  -21.660000000000000          0.0000000000000000     
  -21.600000000000001          0.0000000000000000     
  -21.539999999999999          0.0000000000000000     
  -21.480000000000000          0.0000000000000000     
  -21.420000000000002          0.0000000000000000     
  -21.359999999999999          0.0000000000000000     
  -21.300000000000001          0.0000000000000000     
  -21.240000000000002          0.0000000000000000     
  -21.180000000000000          0.0000000000000000     
  -21.120000000000001          0.0000000000000000     
  -21.059999999999999          0.0000000000000000     
  -21.000000000000000          0.0000000000000000     
  -20.940000000000001          0.0000000000000000     
  -20.879999999999999          0.0000000000000000     
  -20.820000000000000          0.0000000000000000     
  -20.760000000000002          0.0000000000000000     
  -20.699999999999999          0.0000000000000000     
  -20.640000000000001          0.0000000000000000     
  -20.579999999999998          0.0000000000000000     
  -20.520000000000000          0.0000000000000000     
  -20.460000000000001          0.0000000000000000     
  -20.399999999999999          0.0000000000000000     
  -20.340000000000000          0.0000000000000000     
  -20.280000000000001          0.0000000000000000     
  -20.219999999999999          0.0000000000000000     
  -20.160000000000000          0.0000000000000000     
  -20.100000000000001          0.0000000000000000     
  -20.039999999999999          0.0000000000000000     
  -19.980000000000000          0.0000000000000000     
  -19.920000000000002          0.0000000000000000     
  -19.859999999999999          0.0000000000000000     
  -19.800000000000001          0.0000000000000000     
  -19.740000000000002          0.0000000000000000     
  -19.680000000000000          0.0000000000000000     
  -19.620000000000001          0.0000000000000000     
  -19.560000000000002          0.0000000000000000     
  -19.500000000000000          0.0000000000000000     
  -19.440000000000001          0.0000000000000000     
  -19.379999999999999          0.0000000000000000     
  -19.320000000000000          0.0000000000000000     
  -19.259999999999998          0.0000000000000000     
  -19.199999999999999          0.0000000000000000     
  -19.140000000000001          0.0000000000000000     
  -19.079999999999998          0.0000000000000000     
  -19.020000000000000          0.0000000000000000     
  -18.960000000000001          0.0000000000000000     
  -18.899999999999999          0.0000000000000000     
  -18.840000000000000          0.0000000000000000     
  -18.780000000000001          0.0000000000000000     
  -18.719999999999999          0.0000000000000000     
  -18.660000000000000          0.0000000000000000     
  -18.600000000000001          0.0000000000000000     
  -18.539999999999999          0.0000000000000000     
  -18.480000000000000          0.0000000000000000     
  -18.420000000000002          0.0000000000000000     
  -18.359999999999999          0.0000000000000000     
  -18.300000000000001          0.0000000000000000     
  -18.240000000000002          0.0000000000000000     
  -18.180000000000000          0.0000000000000000     
  -18.120000000000001          0.0000000000000000     
  -18.060000000000002          0.0000000000000000     
  -18.000000000000000          0.0000000000000000     
  -17.940000000000001          0.0000000000000000     
  -17.879999999999999          0.0000000000000000     
  -17.820000000000000          0.0000000000000000     
  -17.759999999999998          0.0000000000000000     
  -17.699999999999999          0.0000000000000000     
  -17.640000000000001          0.0000000000000000     
  -17.579999999999998          0.0000000000000000     
  -17.520000000000000          0.0000000000000000     
  -17.460000000000001          0.0000000000000000     
  -17.399999999999999          0.0000000000000000     
  -17.340000000000000          0.0000000000000000     
  -17.280000000000001          0.0000000000000000     
  -17.219999999999999          0.0000000000000000     
  -17.160000000000000          0.0000000000000000     
  -17.100000000000001          0.0000000000000000     
  -17.039999999999999          0.0000000000000000     
  -16.980000000000000          0.0000000000000000     
  -16.920000000000002          0.0000000000000000     
  -16.859999999999999          0.0000000000000000     
  -16.800000000000001          0.0000000000000000     
  -16.740000000000002          0.0000000000000000     
  -16.680000000000000          0.0000000000000000     
  -16.620000000000001          0.0000000000000000     
  -16.560000000000002          0.0000000000000000     
  -16.500000000000000          0.0000000000000000     
  -16.440000000000001          0.0000000000000000     
  -16.379999999999999          0.0000000000000000     
  -16.320000000000000          0.0000000000000000     
  -16.260000000000002          0.0000000000000000     
  -16.199999999999999          0.0000000000000000     
  -16.140000000000001          0.0000000000000000     
  -16.079999999999998          0.0000000000000000     
  -16.020000000000000          0.0000000000000000     
  -15.960000000000001          0.0000000000000000     
  -15.900000000000000          0.0000000000000000     
  -15.840000000000000          0.0000000000000000     
  -15.780000000000001          0.0000000000000000     
  -15.720000000000001          0.0000000000000000     
  -15.660000000000000          0.0000000000000000     
  -15.600000000000000          0.0000000000000000     
  -15.540000000000001          0.0000000000000000     
  -15.480000000000000          0.0000000000000000     
  -15.420000000000000          0.0000000000000000     
  -15.359999999999999          0.0000000000000000     
  -15.300000000000001          0.0000000000000000     
  -15.240000000000000          0.0000000000000000     
  -15.180000000000000          0.0000000000000000     
  -15.120000000000001          0.0000000000000000     
  -15.060000000000000          0.0000000000000000     
  -15.000000000000000          0.0000000000000000     
  -14.940000000000000          0.0000000000000000     
  -14.880000000000001          0.0000000000000000     
  -14.820000000000000          0.0000000000000000     
  -14.760000000000000          0.0000000000000000     
  -14.700000000000001          0.0000000000000000     
  -14.640000000000001          0.0000000000000000     
  -14.580000000000000          0.0000000000000000     
  -14.520000000000000          0.0000000000000000     
  -14.460000000000001          0.0000000000000000     
  -14.400000000000000          0.0000000000000000     
  -14.340000000000000          0.0000000000000000     
  -14.280000000000001          0.0000000000000000     
  -14.220000000000001          0.0000000000000000     
  -14.160000000000000          0.0000000000000000     
  -14.100000000000000          0.0000000000000000     
  -14.040000000000001          0.0000000000000000     
  -13.980000000000000          0.0000000000000000     
  -13.920000000000000          0.0000000000000000     
  -13.860000000000001          0.0000000000000000     
  -13.800000000000001          0.0000000000000000     
  -13.740000000000000          0.0000000000000000     
  -13.680000000000000          0.0000000000000000     
  -13.620000000000001          0.0000000000000000     
  -13.560000000000000          0.0000000000000000     
  -13.500000000000000          0.0000000000000000     
  -13.440000000000001          0.0000000000000000     
  -13.380000000000001          0.0000000000000000     
  -13.320000000000000         -1.1200729218635255E-039
  -13.260000000000000         -2.8846825921849962E-039
  -13.200000000000001         -5.3290412196379003E-039
  -13.140000000000001         -8.4609059427790281E-039
  -13.080000000000000         -1.2253140703144455E-038
  -13.020000000000000         -1.6635603765079523E-038
  -12.960000000000001         -2.1289755419296814E-038
  -12.900000000000000         -2.5943907073514106E-038
  -12.840000000000000         -3.0598058727731398E-038
  -12.780000000000001         -3.5094188201946959E-038
  -12.720000000000001         -3.8988438875273794E-038
  -12.660000000000000         -4.1736182428509244E-038
  -12.600000000000000         -4.3142698577595402E-038
  -12.540000000000001         -4.2308117037990540E-038
  -12.480000000000000         -3.7487949228472510E-038
  -12.420000000000000         -2.8163021330132859E-038
  -12.360000000000001         -1.3807048539803039E-038
  -12.300000000000001          8.5375566233490669E-039
  -12.240000000000000          3.7710438058305913E-038
  -12.180000000000000          7.3602385135937136E-038
  -12.120000000000001          1.1337489790979052E-037
  -12.060000000000000          1.5648687172082811E-037
  -12.000000000000000          1.9966144655172800E-037
  -11.940000000000001          2.4340098063970147E-037
  -11.880000000000001          2.8781805395821153E-037
  -11.820000000000000          3.3215523181168332E-037
  -11.760000000000000          3.6820124006562760E-037
  -11.700000000000001          3.9180992924889524E-037
  -11.640000000000001          4.0086250429642301E-037
  -11.580000000000000          3.9825498226846197E-037
  -11.520000000000000          3.8244368933223232E-037
  -11.460000000000001          3.5202130805506506E-037
  -11.400000000000000          3.0580390270112547E-037
  -11.340000000000000          2.4293276764010137E-037
  -11.280000000000001          1.6299040158942097E-037
  -11.220000000000001          6.6359956457597608E-038
  -11.160000000000000         -4.6253916365162314E-038
  -11.100000000000000         -1.7336644048898414E-037
  -11.040000000000001         -3.1210166009490894E-037
  -10.980000000000000         -4.5859132826407769E-037
  -10.920000000000000         -6.0940844286894175E-037
  -10.860000000000001         -7.4936529254658241E-037
  -10.800000000000001         -8.7556516618939378E-037
  -10.740000000000000         -9.7898196031985343E-037
  -10.680000000000000         -1.0446834457413895E-036
  -10.620000000000001         -1.0574914888724958E-036
  -10.560000000000000         -1.0188069169008571E-036
  -10.500000000000000         -9.1001223324374144E-037
  -10.440000000000001         -7.1959185209925974E-037
  -10.380000000000001         -4.3698971552047885E-037
  -10.320000000000000         -6.1989457471836727E-038
  -10.260000000000000          4.1747514749381973E-037
  -10.200000000000001          1.0196792803963057E-036
  -10.140000000000001          1.7416746694039385E-036
  -10.080000000000000          2.5724507101948220E-036
  -10.020000000000001          3.4838052241537749E-036
  -9.9600000000000009          4.4530641041662370E-036
  -9.9000000000000004          5.4508394315081437E-036
  -9.8399999999999999          6.4184750140706814E-036
  -9.7800000000000011          7.3219474102230995E-036
  -9.7200000000000006          8.0950848363418698E-036
  -9.6600000000000001          8.6710151644035368E-036
  -9.6000000000000014          9.0292905125124639E-036
  -9.5400000000000009          9.1179154131736641E-036
  -9.4800000000000004          8.8453401314168837E-036
  -9.4199999999999999          8.1039564509466696E-036
  -9.3600000000000012          6.8073656910212054E-036
  -9.3000000000000007          4.8222741349244151E-036
  -9.2400000000000002          2.0688929209420345E-036
  -9.1799999999999997         -1.5183238860628353E-036
  -9.1200000000000010         -6.0260169485940507E-036
  -9.0600000000000005         -1.1475622321561418E-035
  -9.0000000000000000         -1.7882912810496757E-035
  -8.9400000000000013         -2.5133639378358763E-035
  -8.8800000000000008         -3.3168266870892592E-035
  -8.8200000000000003         -4.1810981981936711E-035
  -8.7599999999999998         -5.0791551570822383E-035
  -8.7000000000000011         -5.9799689174276156E-035
  -8.6400000000000006         -6.8446704061785453E-035
  -8.5800000000000001         -7.6262749120254190E-035
  -8.5200000000000014         -8.2698569442555893E-035
  -8.4600000000000009         -8.7116715441512695E-035
  -8.4000000000000004         -8.8825088673618233E-035
  -8.3399999999999999         -8.7066856246556571E-035
  -8.2800000000000011         -8.1057325738669617E-035
  -8.2200000000000006         -6.9989539854863870E-035
  -8.1600000000000001         -5.3100989879963648E-035
  -8.1000000000000014         -2.9654785906050670E-035
  -8.0400000000000009          9.7550226469153859E-037
  -7.9800000000000004          3.9273669133537834E-035
  -7.9200000000000017          8.5572169492304754E-035
  -7.8599999999999994          1.3993105795349241E-034
  -7.8000000000000007          2.0209826953095980E-034
  -7.7400000000000020          2.7136410217108169E-034
  -7.6799999999999997          3.4659082073936737E-034
  -7.6200000000000010          4.2609843645501295E-034
  -7.5600000000000023          5.0766537210226782E-034
  -7.5000000000000000          5.8845279957581284E-034
  -7.4400000000000013          6.6497829481333493E-034
  -7.3799999999999990          7.3305350747214718E-034
  -7.3200000000000003          7.8787842289503418E-034
  -7.2600000000000016          8.2399749349424015E-034
  -7.1999999999999993          8.3546689532422557E-034
  -7.1400000000000006          8.1589882960458665E-034
  -7.0800000000000018          7.5863418964396684E-034
  -7.0199999999999996          6.5691367238878714E-034
  -6.9600000000000009          5.0419221509162973E-034
  -6.9000000000000021          2.9441891890711284E-034
  -6.8399999999999999          2.2377173504994218E-035
  -6.7800000000000011         -3.1591016548808989E-034
  -6.7199999999999989         -7.2273962081266581E-034
  -6.6600000000000001         -1.1982521081395165E-033
  -6.6000000000000014         -1.7399350611761288E-033
  -6.5399999999999991         -2.3421160369571731E-033
  -6.4800000000000004         -2.9954643901290756E-033
  -6.4200000000000017         -3.6865210161696784E-033
  -6.3599999999999994         -4.3973132039248022E-033
  -6.3000000000000007         -5.1049719206903885E-033
  -6.2400000000000020         -5.7815443731689081E-033
  -6.1799999999999997         -6.3939337127015840E-033
  -6.1200000000000010         -6.9039504427681299E-033
  -6.0600000000000023         -7.2687670311438206E-033
  -6.0000000000000000         -7.4414002356276943E-033
  -5.9400000000000013         -7.3716013434633694E-033
  -5.8799999999999990         -7.0070334854868905E-033
  -5.8200000000000003         -6.2947814212176585E-033
  -5.7600000000000016         -5.1832152499488182E-033
  -5.6999999999999993         -3.6242038163799110E-033
  -5.6400000000000006         -1.5756789222822063E-033
  -5.5800000000000018          9.9546993449563142E-034
  -5.5199999999999996          4.1102224534383600E-033
  -5.4600000000000009          7.7740125055189497E-033
  -5.4000000000000021          1.1973163572492196E-032
  -5.3399999999999999          1.6671270150312695E-032
  -5.2800000000000011          2.1805635117410231E-032
  -5.2200000000000024          2.7283942498505865E-032
  -5.1600000000000001          3.2981263306421208E-032
  -5.1000000000000014          3.8737659458817668E-032
  -5.0399999999999991          4.4356554902033773E-032
  -4.9800000000000004          4.9604073154963367E-032
  -4.9200000000000017          5.4209592148733737E-032
  -4.8599999999999994          5.7867744448034105E-032
  -4.8000000000000007          6.0242088427910996E-032
  -4.7400000000000020          6.0970667721109326E-032
  -4.6799999999999997          5.9673601610586479E-032
  -4.6200000000000010          5.5962914823500304E-032
  -4.5600000000000023          4.9454672900937692E-032
  -4.5000000000000000          3.9783469830587170E-032
  -4.4400000000000013          2.6619222351591625E-032
  -4.3799999999999990          9.6861606418071916E-033
  -4.3200000000000003         -1.1216226361539041E-032
  -4.2600000000000016         -3.6190643306337997E-032
  -4.1999999999999993         -6.5218262314735073E-032
  -4.1400000000000006         -9.8134481046961519E-032
  -4.0800000000000018         -1.3460487324824593E-031
  -4.0199999999999996         -1.7410217574023059E-031
  -3.9600000000000009         -2.1588537631380548E-031
  -3.9000000000000021         -2.5898201852153386E-031
  -3.8399999999999999         -3.0217497857460756E-031
  -3.7800000000000011         -3.4399494106426474E-031
  -3.7200000000000024         -3.8272024533990623E-031
  -3.6600000000000001         -4.1638516441458259E-031
  -3.6000000000000014         -4.4279831918353202E-031
  -3.5399999999999991         -4.5957226918403561E-031
  -3.4800000000000004         -4.6416584278255399E-031
  -3.4200000000000017         -4.5393974645140826E-031
  -3.3599999999999994         -4.2622652991082253E-031
  -3.3000000000000007         -3.7841539197528510E-031
  -3.2400000000000020         -3.0805109057238261E-031
  -3.1799999999999997         -2.1294738335639541E-031
  -3.1200000000000010         -9.1313321204911228E-032
  -3.0600000000000023          5.8109622195626268E-032
  -3.0000000000000000          2.3590113934101899E-031
  -2.9400000000000013          4.4181029561806162E-031
  -2.8800000000000026          6.7460238165548845E-031
  -2.8200000000000003          9.3190878435715823E-031
  -2.7600000000000016          1.2100856113314474E-030
  -2.6999999999999993          1.5040876216047889E-030
  -2.6400000000000006          1.8073642948386238E-030
  -2.5800000000000018          2.1117852279468793E-030
  -2.5199999999999996          2.4076034267468688E-030
  -2.4600000000000009          2.6834646426393210E-030
  -2.4000000000000021          2.9264707548143154E-030
  -2.3399999999999999          3.1223050508145613E-030
  -2.2800000000000011          3.2554275584366604E-030
  -2.2200000000000024          3.3093456253134391E-030
  -2.1600000000000001          3.2669678628459143E-030
  -2.1000000000000014          3.1110399466972139E-030
  -2.0399999999999991          2.8246704595675356E-030
  -1.9800000000000004          2.3919394732253003E-030
  -1.9200000000000017          1.7985907503409749E-030
  -1.8599999999999994          1.0327975062807811E-030
  -1.8000000000000007          8.5991912386717778E-032
  -1.7400000000000020         -1.0462555084980411E-030
  -1.6799999999999997         -2.3633290171594368E-030
  -1.6200000000000010         -3.8586519876978904E-030
  -1.5600000000000023         -5.5187929980724071E-030
  -1.5000000000000000         -7.3226266810226682E-030
  -1.4400000000000013         -9.2405821554914280E-030
  -1.3800000000000026         -1.1234019001030065E-029
  -1.3200000000000003         -1.3254777749901417E-029
  -1.2600000000000016         -1.5244944784004217E-029
  -1.1999999999999993         -1.7136874571802102E-029
  -1.1400000000000006         -1.8853524374460197E-029
  -1.0800000000000018         -2.0309136947386601E-029
  -1.0199999999999996         -2.1410316167625200E-029
 -0.96000000000000085         -2.2057527296399901E-029
 -0.90000000000000213         -2.2147052440277800E-029
 -0.83999999999999986         -2.1573427044164075E-029
 -0.78000000000000114         -2.0232359104914509E-029
 -0.72000000000000242         -1.8024122487096240E-029
 -0.66000000000000014         -1.4857413026558601E-029
 -0.60000000000000142         -1.0653632199439775E-029
 -0.53999999999999915         -5.3515228980407442E-030
 -0.48000000000000043          1.0878953676630598E-030
 -0.42000000000000171          8.6762111453148884E-030
 -0.35999999999999943          1.7392443360777306E-029
 -0.30000000000000071          2.7177935953929603E-029
 -0.24000000000000199          3.7931498116702179E-029
 -0.17999999999999972          4.9504985358264837E-029
 -0.12000000000000099          6.1699520242643208E-029
  -6.0000000000002274E-002     7.4262572408218222E-029
   0.0000000000000000          8.6886134857664240E-029
   5.9999999999998721E-002     9.9206239393900606E-029
  0.11999999999999744          1.1080403931678789E-028
  0.17999999999999972          1.2120870638507814E-028
  0.23999999999999844          1.2990233312579463E-028
  0.30000000000000071          1.3632709870699154E-028
  0.35999999999999943          1.3989481711832729E-028
  0.41999999999999815          1.3999890204481932E-028
  0.48000000000000043          1.3602904258923477E-028
  0.53999999999999915          1.2738828875335423E-028
  0.59999999999999787          1.1351277768595886E-028
  0.66000000000000014          9.3893682269968526E-029
  0.71999999999999886          6.8101303852290303E-029
  0.77999999999999758          3.5810900547450415E-029
  0.83999999999999986         -3.1702410260038431E-030
  0.89999999999999858         -4.8875058399672666E-029
  0.96000000000000085         -1.0114891671765970E-028
   1.0199999999999996         -1.5962259797534038E-028
   1.0799999999999983         -2.2368697647524104E-028
   1.1400000000000006         -2.9247036576098583E-028
   1.1999999999999993         -3.6481971616344963E-028
   1.2599999999999980         -4.3928657937816399E-028
   1.3200000000000003         -5.1411916268087888E-028
   1.3799999999999990         -5.8726193328396834E-028
   1.4399999999999977         -6.5636335979277361E-028
   1.5000000000000000         -7.1879350721172208E-028
   1.5599999999999987         -7.7167238214009160E-028
   1.6199999999999974         -8.1190954645812253E-028
   1.6799999999999997         -8.3625632443315193E-028
   1.7399999999999984         -8.4137074595351382E-028
   1.8000000000000007         -8.2389557479027316E-028
   1.8599999999999994         -7.8054928477037857E-028
   1.9199999999999982         -7.0822929248339808E-028
   1.9800000000000004         -6.0412687167329198E-028
   2.0399999999999991         -4.6585267531923163E-028
   2.0999999999999979         -2.9156969576147858E-028
   2.1600000000000001         -8.0132881005189611E-029
   2.2199999999999989          1.6876839097941321E-028
   2.2799999999999976          4.5446802752461011E-028
   2.3399999999999999          7.7518572667073672E-028
   2.3999999999999986          1.1278978854399660E-027
   2.4599999999999973          1.5082221328639414E-027
   2.5199999999999996          1.9103207409519989E-027
   2.5799999999999983          2.3268283684320237E-027
   2.6400000000000006          2.7488105993021226E-027
   2.6999999999999993          3.1657569092329389E-027
   2.7599999999999980          3.5656170691190371E-027
   2.8200000000000003          3.9348823021997511E-027
   2.8799999999999990          4.2587204777112012E-027
   2.9399999999999977          4.5211653697883280E-027
   3.0000000000000000          4.7053674994568963E-027
   3.0599999999999987          4.7939054843729526E-027
   3.1199999999999974          4.7691615955651993E-027
   3.1799999999999997          4.6137577743910164E-027
   3.2399999999999984          4.3110555693106516E-027
   3.3000000000000007          3.8457080712184737E-027
   3.3599999999999994          3.2042660102978773E-027
   3.4199999999999982          2.3758220382561753E-027
   3.4800000000000004          1.3526883100684916E-027
   3.5399999999999991          1.3109091500901046E-028
   3.5999999999999979         -1.2881336408349268E-027
   3.6600000000000001         -2.8988574242057322E-027
   3.7199999999999989         -4.6890162442099944E-027
   3.7799999999999976         -6.6400231297659413E-027
   3.8399999999999999         -8.7262610911231400E-027
   3.8999999999999986         -1.0914686934677721E-026
   3.9599999999999973         -1.3164562042408535E-026
   4.0199999999999996         -1.5427348705665048E-026
   4.0799999999999983         -1.7646786908172934E-026
   4.1400000000000006         -1.9759180338640136E-026
   4.1999999999999993         -2.1693922939475661E-026
   4.2599999999999980         -2.3374267701945760E-026
   4.3200000000000003         -2.4718373029952120E-026
   4.3799999999999990         -2.5640636718855469E-026
   4.4399999999999977         -2.6053308380331930E-026
   4.5000000000000000         -2.5868399261063958E-026
   4.5599999999999987         -2.4999877287423541E-026
   4.6199999999999974         -2.3366123645040121E-026
   4.6799999999999997         -2.0892646639769292E-026
   4.7399999999999984         -1.7515003635285016E-026
   4.7999999999999972         -1.3181884917537787E-026
   4.8599999999999994         -7.8583199336763739E-027
   4.9199999999999982         -1.5289361822830735E-027
   4.9800000000000004          5.7988059281315908E-027
   5.0399999999999991          1.4091478329113180E-026
   5.0999999999999979          2.3286758521647666E-026
   5.1600000000000001          3.3290792395877322E-026
   5.2199999999999989          4.3975965007514428E-026
   5.2799999999999976          5.5179195250428541E-026
   5.3399999999999999          6.6700855618527264E-026
   5.3999999999999986          7.8304432857834717E-026
   5.4599999999999973          8.9717067271159897E-026
   5.5199999999999996          1.0063103833250579E-025
   5.5799999999999983          1.1070631278991220E-025
   5.6400000000000006          1.1957424710705104E-025
   5.6999999999999993          1.2684251721365914E-025
   5.7599999999999980          1.3210126917558414E-025
   5.8200000000000003          1.3493056922665380E-025
   5.8799999999999990          1.3490921427689951E-025
   5.9399999999999977          1.3162462471365977E-025
   6.0000000000000000          1.2468408050302674E-025
   6.0599999999999987          1.1372689800936430E-025
   6.1199999999999974          9.8437601658888411E-026
   6.1799999999999997          7.8559751403065970E-026
   6.2399999999999984          5.3910338469607722E-026
   6.2999999999999972          2.4394375049655707E-026
   6.3599999999999994         -9.9806930318002908E-027
   6.4199999999999982         -4.9090892313233433E-026
   6.4800000000000004         -9.2682616493710553E-026
   6.5399999999999991         -1.4036069811159296E-025
   6.5999999999999979         -1.9157828740527694E-025
   6.6600000000000001         -2.4562885172754847E-025
   6.7199999999999989         -3.0164093338699557E-025
   6.7799999999999976         -3.5857598260524924E-025
   6.8399999999999999         -4.1522989120920832E-025
   6.8999999999999986         -4.7023850367347907E-025
   6.9599999999999973         -5.2208775083844861E-025
   7.0199999999999996         -5.6912844327063983E-025
   7.0799999999999983         -6.0959633318978643E-025
   7.1400000000000006         -6.4163734088440400E-025
   7.1999999999999993         -6.6333834593270517E-025
   7.2599999999999980         -6.7276358594110802E-025
   7.3200000000000003         -6.6799583030370093E-025
   7.3799999999999990         -6.4718324975451203E-025
   7.4399999999999977         -6.0859045030236638E-025
   7.5000000000000000         -5.5065382810233855E-025
   7.5599999999999987         -4.7204006887304877E-025
   7.6199999999999974         -3.7170747488303510E-025
   7.6799999999999997         -2.4896790999375712E-025
   7.7399999999999984         -1.0354975459662580E-025
   7.7999999999999972          6.4341203536365236E-026
   7.8599999999999994          2.5396313544861782E-025
   7.9199999999999982          4.6398468249059592E-025
   7.9800000000000004          6.9243699971463830E-025
   8.0399999999999991          9.3667451214103661E-025
   8.1000000000000014          1.1933457899998647E-024
   8.1599999999999966          1.4583761057483922E-024
   8.2199999999999989          1.7269640827774024E-024
   8.2800000000000011          1.9935941904027211E-024
   8.3399999999999963          2.2520664992143788E-024
   8.3999999999999986          2.4955456566132170E-024
   8.4600000000000009          2.7166298370473695E-024
   8.5199999999999960          2.9074411809112086E-024
   8.5799999999999983          3.0597385968828996E-024
   8.6400000000000006          3.1650517336001100E-024