  -24.000000000000000          0.0000000000000000     
  -23.940000000000001          0.0000000000000000     
  -23.879999999999999          0.0000000000000000     
  -23.820000000000000          0.0000000000000000     
  -23.760000000000002          0.0000000000000000     
  -23.699999999999999          0.0000000000000000     
  -23.640000000000001          0.0000000000000000     
  -23.579999999999998          0.0000000000000000     
  -23.520000000000000          0.0000000000000000     
  -23.460000000000001          0.0000000000000000     
  -23.399999999999999          0.0000000000000000     
  -23.340000000000000          0.0000000000000000     
  -23.280000000000001          0.0000000000000000     
  -23.219999999999999          0.0000000000000000     
  -23.160000000000000          0.0000000000000000     
  -23.100000000000001          0.0000000000000000     
  -23.039999999999999          0.0000000000000000     
  -22.980000000000000          0.0000000000000000     
  -22.920000000000002          0.0000000000000000     
  -22.859999999999999          0.0000000000000000     
  -22.800000000000001          0.0000000000000000     
  -22.739999999999998          0.0000000000000000     
  -22.680000000000000          0.0000000000000000     
  -22.620000000000001          7.6242202539539349E-041
  -22.559999999999999          2.1763706800211013E-040
  -22.500000000000000          4.2790950521704874E-040
  -22.440000000000001          8.7665498976614458E-040
  -22.379999999999999          1.6040471784201508E-039
  -22.320000000000000          2.9092778474832969E-039
  -22.260000000000002          5.0272210845105815E-039
  -22.199999999999999          9.1160971706060306E-039
  -22.140000000000001          1.6972686781196909E-038
  -22.079999999999998          3.1230350848735048E-038
  -22.020000000000000          5.6176005235879772E-038
  -21.960000000000001          9.8912968162239561E-038
  -21.899999999999999          1.6922606391969489E-037
  -21.840000000000000          2.8551383775524184E-037
  -21.780000000000001          4.7163904979974465E-037
  -21.719999999999999          7.6715683699466254E-037
  -21.660000000000000          1.2232670722066917E-036
  -21.600000000000001          1.9127064921303702E-036
  -21.539999999999999          2.9386404254471377E-036
  -21.480000000000000          4.4468373224354324E-036
  -21.420000000000002          6.5829181879844955E-036
  -21.359999999999999          9.5287686787836376E-036
  -21.300000000000001          1.3480989738255285E-035
  -21.240000000000002          1.8672454459638823E-035
  -21.180000000000000          2.5258304778120750E-035
  -21.120000000000001          3.3305476649637905E-035
  -21.059999999999999          4.2703605344141646E-035
  -21.000000000000000          5.2973428020610665E-035
  -20.940000000000001          6.3113519099601975E-035
  -20.879999999999999          7.1311275988369336E-035
  -20.820000000000000          7.4626797652312598E-035
  -20.760000000000002          6.8543186062609451E-035
  -20.699999999999999          4.6451915559537241E-035
  -20.640000000000001         -9.4791101991499111E-037
  -20.579999999999998         -8.6274313602390849E-035
  -20.520000000000000         -2.2619526196116575E-034
  -20.460000000000001         -4.4206192011674782E-034
  -20.399999999999999         -7.6041182061935856E-034
  -20.340000000000000         -1.2132120266308596E-033
  -20.280000000000001         -1.8376401710998850E-033
  -20.219999999999999         -2.6752585126409545E-033
  -20.160000000000000         -3.7702272446061535E-033
  -20.100000000000001         -5.1662993117341828E-033
  -20.039999999999999         -6.9022434979952359E-033
  -19.980000000000000         -9.0053968142328683E-033
  -19.920000000000002         -1.1482852011923237E-032
  -19.859999999999999         -1.4310207932257534E-032
  -19.800000000000001         -1.7417517091401373E-032
  -19.740000000000002         -2.0672475457281255E-032
  -19.680000000000000         -2.3861051273932963E-032
  -19.620000000000001         -2.6666092508973309E-032
  -19.560000000000002         -2.8644887474234269E-032
  -19.500000000000000         -2.9207146243739816E-032
  -19.440000000000001         -2.7595502560078350E-032
  -19.379999999999999         -2.2871389997937108E-032
  -19.320000000000000         -1.3909784684571426E-032
  -19.259999999999998          5.9274988614656976E-034
  -19.199999999999999          2.2091696131093604E-032
  -19.140000000000001          5.2144053602396399E-032
  -19.079999999999998          9.2327628578397115E-032
  -19.020000000000000          1.4412377362291223E-031
  -18.960000000000001          2.0875768852921077E-031
  -18.899999999999999          2.8699121922732528E-031
  -18.840000000000000          3.7886499579106747E-031
  -18.780000000000001          4.8338904878253788E-031
  -18.719999999999999          5.9818487083811114E-031
  -18.660000000000000          7.1908634124028226E-031
  -18.600000000000001          8.3971342943058478E-031
  -18.539999999999999          9.5103927797995551E-031
  -18.480000000000000          1.0409795267991868E-030
  -18.420000000000002          1.0940421737677651E-030
  -18.359999999999999          1.0910860388221080E-030
  -18.300000000000001          1.0092459562155584E-030
  -18.240000000000002          8.2209051104782121E-031
  -18.180000000000000          5.0008905035973475E-031
  -18.120000000000001          1.1468540514065284E-032
  -18.060000000000002         -6.7645947663674940E-031
  -18.000000000000000         -1.5954191443942220E-030
  -17.940000000000001         -2.7736683664578400E-030
  -17.879999999999999         -4.2328218820268245E-030
  -17.820000000000000         -5.9839731226616803E-030
  -17.759999999999998         -8.0231175611065685E-030
  -17.699999999999999         -1.0325944441794335E-029
  -17.640000000000001         -1.2842106630952240E-029
  -17.579999999999998         -1.5489156683858956E-029
  -17.520000000000000         -1.8146430579895350E-029
  -17.460000000000001         -2.0649229128644351E-029
  -17.399999999999999         -2.2783773321882844E-029
  -17.340000000000000         -2.4283487698757883E-029
  -17.280000000000001         -2.4827289202727837E-029
  -17.219999999999999         -2.4040619795717809E-029
  -17.160000000000000         -2.1500060795217658E-029
  -17.100000000000001         -1.6742383501615377E-029
  -17.039999999999999         -9.2789418636258795E-030
  -16.980000000000000          1.3838157891015525E-030
  -16.920000000000002          1.5716911437036609E-029
  -16.859999999999999          3.4134001737010321E-029
  -16.800000000000001          5.6948825949145829E-029
  -16.740000000000002          8.4324998564573022E-029
  -16.680000000000000          1.1621865905277049E-028
  -16.620000000000001          1.5231512485175871E-028
  -16.560000000000002          1.9196121901928005E-028
  -16.500000000000000          2.3409573978566998E-028
  -16.440000000000001          2.7718148395974185E-028
  -16.379999999999999          3.1914296339026582E-028
  -16.320000000000000          3.5731478514067418E-028
  -16.260000000000002          3.8840677233414137E-028
  -16.199999999999999          4.0849252193135777E-028
  -16.140000000000001          4.1302871236303067E-028
  -16.079999999999998          3.9691296558329112E-028
  -16.020000000000000          3.5458829407126879E-028
  -15.960000000000001          2.8020152474749968E-028
  -15.900000000000000          1.6782312610234289E-028
  -15.840000000000000          1.1733512720018273E-029
  -15.780000000000001         -1.9321986066128531E-028
  -15.720000000000001         -4.5119361238919574E-028
  -15.660000000000000         -7.6485006045917627E-028
  -15.600000000000000         -1.1347952456899086E-027
  -15.540000000000001         -1.5589649104153873E-027
  -15.480000000000000         -2.0319745300725606E-027
  -15.420000000000000         -2.5444567969403224E-027
  -15.359999999999999         -3.0824151472646239E-027
  -15.300000000000001         -3.6266309799825907E-027
  -15.240000000000000         -4.1521649128786053E-027
  -15.180000000000000         -4.6280059247812378E-027
  -15.120000000000001         -5.0169176755748219E-027
  -15.060000000000000         -5.2755465639369162E-027
  -15.000000000000000         -5.3548509214245467E-027
  -14.940000000000000         -5.2009134389344710E-027
  -14.880000000000001         -4.7561980890441394E-027
  -14.820000000000000         -3.9613056759293096E-027
  -14.760000000000000         -2.7572688668808708E-027
  -14.700000000000001         -1.0884197417754870E-027
  -14.640000000000001          1.0941608966558538E-027
  -14.580000000000000          3.8286288057178718E-027
  -14.520000000000000          7.1378350793076749E-027
  -14.460000000000001          1.1024341008321641E-026
  -14.400000000000000          1.5465096565181895E-026
  -14.340000000000000          2.0405960422855743E-026
  -14.280000000000001          2.5756243887599617E-026
  -14.220000000000001          3.1383543463582321E-026
  -14.160000000000000          3.7109165469287786E-026
  -14.100000000000000          4.2704465955284817E-026
  -14.040000000000001          4.7888517203719876E-026
  -13.980000000000000          5.2327487048435427E-026
  -13.920000000000000          5.5636184624137628E-026
  -13.860000000000001          5.7382197617323635E-026
  -13.800000000000001          5.7093073945851958E-026
  -13.740000000000000          5.4266916007724662E-026
  -13.680000000000000          4.8386756980993242E-026
  -13.620000000000001          3.8938958664301221E-026
  -13.560000000000000          2.5435807911246813E-026
  -13.500000000000000          7.4422519898354055E-027
  -13.440000000000001         -1.5393299038259072E-026
  -13.380000000000001         -4.3304577632290217E-026
  -13.320000000000000         -7.6369995924677372E-026
  -13.260000000000000         -1.1447306546198239E-025
  -13.200000000000001         -1.5726175331468247E-025
  -13.140000000000001         -2.0410830107536097E-025
  -13.080000000000000         -2.5407114955511493E-025
  -13.020000000000000         -3.0586104610189449E-025
  -12.960000000000001         -3.5781362529230797E-025
  -12.900000000000000         -4.0787093826174044E-025
  -12.840000000000000         -4.5357469970989049E-025
  -12.780000000000001         -4.9207374856568525E-025
  -12.720000000000001         -5.2014918407501514E-025
  -12.660000000000000         -5.3425910165016279E-025
  -12.600000000000000         -5.3060610130621710E-025
  -12.540000000000001         -5.0522927451966076E-025
  -12.480000000000000         -4.5412274009899756E-025
  -12.420000000000000         -3.7338114292238504E-025
  -12.360000000000001         -2.5937270656291409E-025
  -12.300000000000001         -1.0893885358020223E-025
  -12.240000000000000          8.0382042142076569E-026
  -12.180000000000000          3.1010975379092957E-025
  -12.120000000000001          5.8056172001946780E-025
  -12.060000000000000          8.9058294836069861E-025
  -12.000000000000000          1.2372748353097992E-024
  -11.940000000000001          1.6157329367008239E-024
  -11.880000000000001          2.0188052073937583E-024
  -11.820000000000000          2.4368833194274999E-024
  -11.760000000000000          2.8577419595805605E-024
  -11.700000000000001          3.2664424989918500E-024
  -11.640000000000001          3.6453150213437483E-024
  -11.580000000000000          3.9740370522145832E-024
  -11.520000000000000          4.2298259138875870E-024
  -11.460000000000001          4.3877558686619162E-024
  -11.400000000000000          4.4212193505935789E-024
  -11.340000000000000          4.3025399022941208E-024
  -11.280000000000001          4.0037438353361376E-024
  -11.220000000000001          3.4974975305836073E-024
  -11.160000000000000          2.7582064641498190E-024
  -11.100000000000000          1.7632688982589495E-024
  -11.040000000000001          4.9446846317624228E-025
  -10.980000000000000         -1.0605103871381060E-024
  -10.920000000000000         -2.9064835618089423E-024
  -10.860000000000001         -5.0391160779137955E-024
  -10.800000000000001         -7.4432708318849531E-024
  -10.740000000000000         -1.0091410727398646E-023
  -10.680000000000000         -1.2942122976792301E-023
  -10.620000000000001         -1.5938834317978536E-023
  -10.560000000000000         -1.9008795406636882E-023
  -10.500000000000000         -2.2062433224686840E-023
  -10.440000000000001         -2.4993134158548561E-023
  -10.380000000000001         -2.7677573455398033E-023
  -10.320000000000000         -2.9976652983536958E-023
  -10.260000000000000         -3.1737151404355554E-023
  -10.200000000000001         -3.2794141069756204E-023
  -10.140000000000001         -3.2974248127878483E-023
  -10.080000000000000         -3.2099775240233090E-023
  -10.020000000000001         -2.9993740659268610E-023
  -9.9600000000000009         -2.6485791081038546E-023
  -9.9000000000000004         -2.1418999546341677E-023
  -9.8399999999999999         -1.4657438109210677E-023
  -9.7800000000000011         -6.0944367331361017E-024
  -9.7200000000000006          4.3385920310501242E-024
  -9.6600000000000001          1.6663006307038554E-023
  -9.6000000000000014          3.0843643629750018E-023
  -9.5400000000000009          4.6779671208040153E-023
  -9.4800000000000004          6.4295925898331049E-023
  -9.4199999999999999          8.3135054834527589E-023
  -9.3600000000000012          1.0295088253228633E-022
  -9.3000000000000007          1.2330337091586034E-022
  -9.2400000000000002          1.4365565532930822E-022
  -9.1799999999999997          1.6337358629271013E-022
  -9.1200000000000010          1.8172820048936234E-022
  -9.0600000000000005          1.9790149530068143E-022
  -9.0000000000000000          2.1099605068500944E-022
  -8.9400000000000013          2.2004858951338954E-022
  -8.8800000000000008          2.2404794023756998E-022
  -8.8200000000000003          2.2195750029378809E-022
  -8.7599999999999998          2.1274227731492799E-022
  -8.7000000000000011          1.9540038033198051E-022
  -8.6400000000000006          1.6899885388934475E-022
  -8.5800000000000001          1.3271337881955994E-022
  -8.5200000000000014          8.5871435621941150E-023
  -8.4600000000000009          2.7998061484938483E-023
  -8.4000000000000004         -4.1136746139841382E-023
  -8.3399999999999999         -1.2146988901138809E-022
  -8.2800000000000011         -2.1259789806380924E-022
  -8.2200000000000006         -3.1373179256197937E-022
  -8.1600000000000001         -4.2365599161287117E-022
  -8.1000000000000014         -5.4069274597447008E-022
  -8.0400000000000009         -6.6267440690969862E-022
  -7.9800000000000004         -7.8692519361122012E-022
  -7.9200000000000017         -9.1025489859018861E-022
  -7.8599999999999994         -1.0289660120771307E-021
  -7.8000000000000007         -1.1388766180262920E-021
  -7.7400000000000020         -1.2353608656689618E-021
  -7.6799999999999997         -1.3134081351633830E-021
  -7.6200000000000010         -1.3677025251770751E-021
  -7.5600000000000023         -1.3927236086682341E-021
  -7.5000000000000000         -1.3828683102990153E-021
  -7.4400000000000013         -1.3325941907240858E-021
  -7.3799999999999990         -1.2365837048857400E-021
  -7.3200000000000003         -1.0899272407477258E-021
  -7.2600000000000016         -8.8832329534368515E-022
  -7.1999999999999993         -6.2829256923729434E-022
  -7.1400000000000006         -3.0740251641379665E-022
  -7.0800000000000018          7.5502624378901730E-023
  -7.0199999999999996          5.2007128571799804E-022
  -6.9600000000000009          1.0242205089468943E-021
  -6.9000000000000021          1.5839238259343539E-021
  -6.8399999999999999          2.1930207845376783E-021
  -6.7800000000000011          2.8430546347349939E-021
  -6.7199999999999989          3.5231458160069875E-021
  -6.6600000000000001          4.2199144169189772E-021
  -6.6000000000000014          4.9174535730276819E-021
  -6.5399999999999991          5.5973687377032805E-021
  -6.4800000000000004          6.2388863313076235E-021
  -6.4200000000000017          6.8190419246799611E-021
  -6.3599999999999994          7.3129537823592231E-021
  -6.3000000000000007          7.6941839582490052E-021
  -6.2400000000000020          7.9351948562658806E-021
  -6.1799999999999997          8.0078994135227017E-021
  -6.1200000000000010          7.8843061483599756E-021
  -6.0600000000000023          7.5372508445103537E-021
  -6.0000000000000000          6.9412156754491269E-021
  -5.9400000000000013          6.0732228269563304E-021
  -5.8799999999999990          4.9137923608078630E-021
  -5.8200000000000003          3.4479435759550335E-021
  -5.7600000000000016          1.6662271299613122E-021
  -5.6999999999999993         -4.3423340061515505E-022
  -5.6400000000000006         -2.8487242040521627E-021
  -5.5800000000000018         -5.5639639310405499E-021
  -5.5199999999999996         -8.5572082165655302E-021
  -5.4600000000000009         -1.1795460462779802E-020
  -5.4000000000000021         -1.5234825824466500E-020
  -5.3399999999999999         -1.8820047340230370E-020
  -5.2800000000000011         -2.2484250037007052E-020
  -5.2200000000000024         -2.6148939880135951E-020
  -5.1600000000000001         -2.9724278574484527E-020
  -5.1000000000000014         -3.3109682523259198E-020
  -5.0399999999999991         -3.6194744087243822E-020
  -4.9800000000000004         -3.8860532473025050E-020
  -4.9200000000000017         -4.0981262575263679E-020
  -4.8599999999999994         -4.2426363936390619E-020
  -4.8000000000000007         -4.3062922794417273E-020
  -4.7400000000000020         -4.2758539998602144E-020
  -4.6799999999999997         -4.1384521530780651E-020
  -4.6200000000000010         -3.8819442387142846E-020
  -4.5600000000000023         -3.4952979912404715E-020
  -4.5000000000000000         -2.9690030429821280E-020
  -4.4400000000000013         -2.2954992818793509E-020
  -4.3799999999999990         -1.4696174628429648E-020
  -4.3200000000000003         -4.8902134238228694E-021
  -4.2600000000000016          6.4535403013241636E-021
  -4.1999999999999993          1.9288858014822648E-020
  -4.1400000000000006          3.3528749148494731E-020
  -4.0800000000000018          4.9041983797131477E-020
  -4.0199999999999996          6.5650203846593286E-020
  -3.9600000000000009          8.3125686887543340E-020
  -3.9000000000000021          1.0118996629307828E-019
  -3.8399999999999999          1.1951336562417517E-019
  -3.7800000000000011          1.3771568358626419E-019
  -3.7200000000000024          1.5536801891786813E-019
  -3.6600000000000001          1.7199596298289400E-019
  -3.6000000000000014          1.8708416632411782E-019
  -3.5399999999999991          2.0008243923359228E-019
  -3.4800000000000004          2.1041331514686634E-019
  -3.4200000000000017          2.1748122339914719E-019
  -3.3599999999999994          2.2068318539353765E-019
  -3.3000000000000007          2.1942106661172599E-019
  -3.2400000000000020          2.1311511960657232E-019
  -3.1799999999999997          2.0121903352818656E-019
  -3.1200000000000010          1.8323598240764908E-019
  -3.0600000000000023          1.5873568279549142E-019
  -3.0000000000000000          1.2737217635201468E-019
  -2.9400000000000013          8.8901936576411214E-020
  -2.8800000000000026          4.3202150546810060E-020
  -2.8200000000000003         -9.7112966982011909E-021
  -2.7600000000000016         -6.9666636622324825E-020
  -2.6999999999999993         -1.3632002420240564E-019
  -2.6400000000000006         -2.0914107721153483E-019
  -2.5800000000000018         -2.8740046428591839E-019
  -2.5199999999999996         -3.7016002284581625E-019
  -2.4600000000000009         -4.5626608246713054E-019
  -2.4000000000000021         -5.4434646471575980E-019
  -2.3399999999999999         -6.3281131622495967E-019
  -2.2800000000000011         -7.1985877945431132E-019
  -2.2200000000000024         -8.0348561329929486E-019
  -2.1600000000000001         -8.8150304129944795E-019
  -2.1000000000000014         -9.5155823734476843E-019
  -2.0399999999999991         -1.0111620230498598E-018
  -1.9800000000000004         -1.0577222304467032E-018
  -1.9200000000000017         -1.0885833607161795E-018
  -1.8599999999999994         -1.1010723890123697E-018
  -1.8000000000000007         -1.0925498119238733E-018
  -1.7400000000000020         -1.0604670549234646E-018
  -1.6799999999999997         -1.0024281145823871E-018
  -1.6200000000000010         -9.1625579834263457E-019
  -1.5600000000000023         -8.0006183032459887E-019
  -1.5000000000000000         -6.5231941829495866E-019
  -1.4400000000000013         -4.7193712143357992E-019
  -1.3800000000000026         -2.5833364127212948E-019
  -1.3200000000000003         -1.1510988918891972E-020
  -1.2600000000000016          2.6787462061025349E-019
  -1.1999999999999993          5.7844632709520052E-019
  -1.1400000000000006          9.1804595979462634E-019
  -1.0800000000000018          1.2836813462230754E-018
  -1.0199999999999996          1.6714829886163099E-018
 -0.96000000000000085          2.0766731854856851E-018
 -0.90000000000000213          2.4935475584676441E-018
 -0.83999999999999986          2.9154732025920873E-018
 -0.78000000000000114          3.3349029877144185E-018
 -0.72000000000000242          3.7434095786652422E-018
 -0.66000000000000014          4.1317393995538303E-018
 -0.60000000000000142          4.4898886524250643E-018
 -0.53999999999999915          4.8072021093964184E-018
 -0.48000000000000043          5.0724955012930721E-018
 -0.42000000000000171          5.2742021561443125E-018
 -0.35999999999999943          5.4005428329577408E-018
 -0.30000000000000071          5.4397201549610073E-018
 -0.24000000000000199          5.3801368744597773E-018
 -0.17999999999999972          5.2106317898466949E-018
 -0.12000000000000099          4.9207400213791575E-018
  -6.0000000000002274E-002     4.5009679693349840E-018
   0.0000000000000000          3.9430805812158538E-018
   5.9999999999998721E-002     3.2404035388536536E-018
  0.11999999999999744          2.3881260168347501E-018
  0.17999999999999972          1.3836111108879057E-018
  0.23999999999999844          2.2669466867675142E-019
  0.30000000000000071         -1.0800166965160298E-018
  0.35999999999999943         -2.5308718424728477E-018
  0.41999999999999815         -4.1169189679068912E-018
  0.48000000000000043         -5.8256828702893242E-018
  0.53999999999999915         -7.6409774694034865E-018
  0.59999999999999787         -9.5427636165056868E-018
  0.66000000000000014         -1.1507059545530554E-017
  0.71999999999999886         -1.3505911204240280E-017
  0.77999999999999758         -1.5507428325984770E-017
  0.83999999999999986         -1.7475895485868379E-017
  0.89999999999999858         -1.9371963412639867E-017
  0.96000000000000085         -2.1152924538351218E-017
   1.0199999999999996         -2.2773077690658525E-017
   1.0799999999999983         -2.4184190572851816E-017
   1.1400000000000006         -2.5336056166151608E-017
   1.1999999999999993         -2.6177138762276221E-017
   1.2599999999999980         -2.6655334053950347E-017
   1.3200000000000003         -2.6718800238765202E-017
   1.3799999999999990         -2.6316901852515620E-017
   1.4399999999999977         -2.5401217964815334E-017
   1.5000000000000000         -2.3926636054788872E-017
   1.5599999999999987         -2.1852508148355070E-017
   1.6199999999999974         -1.9143861504120770E-017
   1.6799999999999997         -1.5772632042681293E-017
   1.7399999999999984         -1.1718941525115856E-017
   1.8000000000000007         -6.9723480150765794E-018
   1.8599999999999994         -1.5330900262706214E-018
   1.9199999999999982          4.5867111583818808E-018
   1.9800000000000004          1.1361928686686625E-017
   2.0399999999999991          1.8753404977429112E-017
   2.0999999999999979          2.6707042844459356E-017
   2.1600000000000001          3.5153063371473173E-017
   2.2199999999999989          4.4005429351681163E-017
   2.2799999999999976          5.3161487465015875E-017
   2.3399999999999999          6.2501858785045999E-017
   2.3999999999999986          7.1890580833773766E-017
   2.4599999999999973          8.1175569874314050E-017
   2.5199999999999996          9.0189356836939332E-017
   2.5799999999999983          9.8750199426995366E-017
   2.6400000000000006          1.0666352942918214E-016
   2.6999999999999993          1.1372377915606017E-016
   2.7599999999999980          1.1971655879541500E-016
   2.8200000000000003          1.2442126730242045E-016
   2.8799999999999990          1.2761399891379852E-016
   2.9399999999999977          1.2907089979554863E-016
   3.0000000000000000          1.2857178671190457E-016
   3.0599999999999987          1.2590416953144825E-016
   3.1199999999999974          1.2086754844715921E-016
   3.1799999999999997          1.1327789945824501E-016
   3.2399999999999984          1.0297248231173981E-016
   3.3000000000000007          8.9814665565908078E-017
   3.3599999999999994          7.3698970811715507E-017
   3.4199999999999982          5.4556016066471586E-017
   3.4800000000000004          3.2357452412089002E-017
   3.5399999999999991          7.1207585978584196E-018
   3.5999999999999979         -2.1086258899478033E-017
   3.6600000000000001         -5.2141263311441700E-017
   3.7199999999999989         -8.5863607422374209E-017
   3.7799999999999976         -1.2201117791933560E-016
   3.8399999999999999         -1.6027780734389834E-016
   3.8999999999999986         -2.0029144543854881E-016
   3.9599999999999973         -2.4161330155659404E-016
   4.0199999999999996         -2.8373776059719853E-016
   4.0799999999999983         -3.2609345615911801E-016
   4.1400000000000006         -3.6804550448928184E-016
   4.1999999999999993         -4.0889880585435580E-016
   4.2599999999999980         -4.4790285254862432E-016
   4.3200000000000003         -4.8425752465828730E-016
   4.3799999999999990         -5.1712061829645615E-016
   4.4399999999999977         -5.4561645411029696E-016
   4.5000000000000000         -5.6884592960678223E-016
   4.5599999999999987         -5.8589793911018570E-016
   4.6199999999999974         -5.9586214158494777E-016
   4.6799999999999997         -5.9784284179139963E-016
   4.7399999999999984         -5.9097400380176612E-016
   4.7999999999999972         -5.7443521074460610E-016
   4.8599999999999994         -5.4746859810730255E-016
   4.9199999999999982         -5.0939648242684873E-016
   4.9800000000000004         -4.5963907766957312E-016
   5.0399999999999991         -3.9773293545471798E-016
   5.0999999999999979         -3.2334895463345411E-016
   5.1600000000000001         -2.3631050019064722E-016
   5.2199999999999989         -1.3661047345357899E-016
   5.2799999999999976         -2.4427689408300820E-017
   5.3399999999999999          9.9857706732745530E-017
   5.3999999999999986          2.3565083905730509E-016
   5.4599999999999973          3.8213033471250349E-016
   5.5199999999999996          5.3823890944531161E-016
   5.5799999999999983          7.0267641159321609E-016
   5.6400000000000006          8.7389615056893670E-016
   5.6999999999999993          1.0501034633311845E-015
   5.7599999999999980          1.2292591592638452E-015
   5.8200000000000003          1.4090858448854372E-015
   5.8799999999999990          1.5870781749679041E-015
   5.9399999999999977          1.7605179122599684E-015
   6.0000000000000000          1.9264931330046841E-015
   6.0599999999999987          2.0819214171578275E-015
   6.1199999999999974          2.2235782117866817E-015
   6.1799999999999997          2.3481290509183050E-015
   6.2399999999999984          2.4521669112906762E-015
   6.2999999999999972          2.5322531443181314E-015
   6.3599999999999994          2.5849625903774459E-015
   6.4199999999999982          2.6069325928430755E-015
   6.4800000000000004          2.5949155443508124E-015
   6.5399999999999991          2.5458338949339695E-015
   6.5999999999999979          2.4568375831994308E-015
   6.6600000000000001          2.3253633763037013E-015
   6.7199999999999989          2.1491954781677612E-015
   6.7799999999999976          1.9265265352309619E-015
   6.8399999999999999          1.6560177491975522E-015
   6.8999999999999986          1.3368579051694700E-015
   6.9599999999999973          9.6882020876405434E-016
   7.0199999999999996          5.5231645843242365E-016
   7.0799999999999983          8.8445832355942164E-017
   7.1400000000000006         -4.2096021013062477E-016
   7.1999999999999993         -9.7329975619150587E-016
   7.2599999999999980         -1.5651692099723369E-015
   7.3200000000000003         -2.1923397778114952E-015
   7.3799999999999990         -2.8497446857368580E-015
   7.4399999999999977         -3.5314737766876357E-015
   7.5000000000000000         -4.2307816640751136E-015
   7.5599999999999987         -4.9401044141098004E-015
   7.6199999999999974         -5.6510913169045704E-015
   7.6799999999999997         -6.3546477620345461E-015
   7.7399999999999984         -7.0409904761715973E-015
   7.7999999999999972         -7.6997185495977565E-015
   7.8599999999999994         -8.3198948889531038E-015
   7.9199999999999982         -8.8901451920330803E-015
   7.9800000000000004         -9.3987648758672646E-015
   8.0399999999999991         -9.8338438111122321E-015
   8.1000000000000014         -1.0183400055139333E-014
   8.1599999999999966         -1.0435528047062910E-014
   8.2199999999999989         -1.0578550828685459E-014
   8.2800000000000011         -1.0601190029561490E-014
   8.3399999999999963         -1.0492738525780177E-014
   8.3999999999999986         -1.0243238520522309E-014
   8.4600000000000009         -9.8436665579460159E-015
   8.5199999999999960         -9.2861194623441716E-015
   8.5799999999999983         -8.5640012716047948E-015
   8.6400000000000006         -7.6722065802448631E-015