  -24.000000000000000          0.0000000000000000     
  -23.940000000000001          0.0000000000000000     
  -23.879999999999999          0.0000000000000000     
  -23.820000000000000          0.0000000000000000     
  -23.760000000000002          0.0000000000000000     
  -23.699999999999999          0.0000000000000000     
  -23.640000000000001          0.0000000000000000     
  -23.579999999999998          0.0000000000000000     
  -23.520000000000000          0.0000000000000000     
  -23.460000000000001          0.0000000000000000     
  -23.399999999999999          0.0000000000000000     
  -23.340000000000000          0.0000000000000000     
  -23.280000000000001          0.0000000000000000     
  -23.219999999999999          0.0000000000000000     
  -23.160000000000000          0.0000000000000000     
  -23.100000000000001          0.0000000000000000     
  -23.039999999999999          0.0000000000000000     
  -22.980000000000000          0.0000000000000000     
  -22.920000000000002          0.0000000000000000     
  -22.859999999999999          0.0000000000000000     
  -22.800000000000001          0.0000000000000000     
  -22.739999999999998          0.0000000000000000     
  -22.680000000000000          0.0000000000000000     
  -22.620000000000001          0.0000000000000000     
  -22.559999999999999          0.0000000000000000     
  -22.500000000000000          0.0000000000000000     
  -22.440000000000001          0.0000000000000000     
  -22.379999999999999          0.0000000000000000     
  -22.320000000000000          0.0000000000000000     
  -22.260000000000002          0.0000000000000000     
  -22.199999999999999          0.0000000000000000     
  -22.140000000000001          0.0000000000000000     
  -22.079999999999998          0.0000000000000000     
  -22.020000000000000          0.0000000000000000     
  -21.960000000000001          0.0000000000000000     
  -21.899999999999999          0.0000000000000000     
  -21.840000000000000          0.0000000000000000     
  -21.780000000000001          0.0000000000000000     
  -21.719999999999999          0.0000000000000000     
  -21.660000000000000          0.0000000000000000     
  -21.600000000000001          0.0000000000000000     
  -21.539999999999999          0.0000000000000000     
  -21.480000000000000          0.0000000000000000     
  -21.420000000000002          0.0000000000000000     
  -21.359999999999999          0.0000000000000000     
  -21.300000000000001          0.0000000000000000     
  -21.240000000000002          0.0000000000000000     
  -21.180000000000000          0.0000000000000000     
  -21.120000000000001          0.0000000000000000     
  -21.059999999999999          0.0000000000000000     
  -21.000000000000000          0.0000000000000000     
  -20.940000000000001          0.0000000000000000     
  -20.879999999999999          0.0000000000000000     
  -20.820000000000000          0.0000000000000000     
  -20.760000000000002          0.0000000000000000     
  -20.699999999999999          0.0000000000000000     
  -20.640000000000001          0.0000000000000000     
  -20.579999999999998          0.0000000000000000     
  -20.520000000000000          0.0000000000000000     
  -20.460000000000001          0.0000000000000000     
  -20.399999999999999          0.0000000000000000     
  -20.340000000000000          0.0000000000000000     
  -20.280000000000001          0.0000000000000000     
  -20.219999999999999          0.0000000000000000     
  -20.160000000000000          0.0000000000000000     
  -20.100000000000001          0.0000000000000000     
  -20.039999999999999          0.0000000000000000     
  -19.980000000000000          0.0000000000000000     
  -19.920000000000002          0.0000000000000000     
  -19.859999999999999          0.0000000000000000     
  -19.800000000000001          0.0000000000000000     
  -19.740000000000002          0.0000000000000000     
  -19.680000000000000          0.0000000000000000     
  -19.620000000000001          0.0000000000000000     
  -19.560000000000002          0.0000000000000000     
  -19.500000000000000          0.0000000000000000     
  -19.440000000000001          0.0000000000000000     
  -19.379999999999999          0.0000000000000000     
  -19.320000000000000          0.0000000000000000     
  -19.259999999999998          0.0000000000000000     
  -19.199999999999999          0.0000000000000000     
  -19.140000000000001          0.0000000000000000     
  -19.079999999999998          0.0000000000000000     
  -19.020000000000000          0.0000000000000000     
  -18.960000000000001          0.0000000000000000     
  -18.899999999999999          0.0000000000000000     
  -18.840000000000000          0.0000000000000000     
  -18.780000000000001          0.0000000000000000     
  -18.719999999999999          0.0000000000000000     
  -18.660000000000000          0.0000000000000000     
  -18.600000000000001          0.0000000000000000     
  -18.539999999999999          0.0000000000000000     
  -18.480000000000000          0.0000000000000000     
  -18.420000000000002          0.0000000000000000     
  -18.359999999999999          0.0000000000000000     
  -18.300000000000001          2.9814282328563511E-041
  -18.240000000000002          8.4163439168629369E-041
  -18.180000000000000          1.7072853365860240E-040
  -18.120000000000001          2.6395786341597694E-040
  -18.060000000000002          3.7137230106987774E-040
  -18.000000000000000          5.0258033441477897E-040
  -17.940000000000001          6.5059799818502992E-040
  -17.879999999999999          8.1487927825905001E-040
  -17.820000000000000          9.8624510435519659E-040
  -17.759999999999998          1.1696865820155571E-039
  -17.699999999999999          1.3596616844638309E-039
  -17.640000000000001          1.5475891662199603E-039
  -17.579999999999998          1.6771172693614279E-039
  -17.520000000000000          1.5561484592399769E-039
  -17.460000000000001          1.2884997842127530E-039
  -17.399999999999999          8.5289679802676761E-040
  -17.340000000000000          2.3123811719623634E-040
  -17.280000000000001         -5.8881724092988728E-040
  -17.219999999999999         -1.6105681114116959E-039
  -17.160000000000000         -2.8211508810965185E-039
  -17.100000000000001         -4.1929728877098484E-039
  -17.039999999999999         -5.6781577347407735E-039
  -16.980000000000000         -7.2418673393795246E-039
  -16.920000000000002         -8.5032694458888107E-039
  -16.859999999999999         -9.4287809755922132E-039
  -16.800000000000001         -9.6771967157407683E-039
  -16.740000000000002         -9.4792681211553042E-039
  -16.680000000000000         -9.0290919186539322E-039
  -16.620000000000001         -8.2377683581206782E-039
  -16.560000000000002         -6.9188716066132592E-039
  -16.500000000000000         -4.8506177963979667E-039
  -16.440000000000001         -2.0886686629924555E-039
  -16.379999999999999          1.9650376839473163E-039
  -16.320000000000000          7.9241699088007040E-039
  -16.260000000000002          1.6042889387509829E-038
  -16.199999999999999          2.6205119580326984E-038
  -16.140000000000001          3.9518958247302738E-038
  -16.079999999999998          5.5063737645881574E-038
  -16.020000000000000          7.0888885780939202E-038
  -15.960000000000001          9.0505159246401784E-038
  -15.900000000000000          1.1604077072257994E-037
  -15.840000000000000          1.4497675287885818E-037
  -15.780000000000001          1.7299181592795612E-037
  -15.720000000000001          1.9761855848160417E-037
  -15.660000000000000          2.0966457202950229E-037
  -15.600000000000000          2.0571333510427378E-037
  -15.540000000000001          1.8285124574874559E-037
  -15.480000000000000          1.3831062249890311E-037
  -15.420000000000000          7.1590203769845177E-038
  -15.359999999999999         -2.5327856582441574E-038
  -15.300000000000001         -1.5373215777722125E-037
  -15.240000000000000         -3.1628933343687046E-037
  -15.180000000000000         -5.0743521817032986E-037
  -15.120000000000001         -7.2208993375952306E-037
  -15.060000000000000         -9.5178982177935160E-037
  -15.000000000000000         -1.1841049037832840E-036
  -14.940000000000000         -1.4031890285823558E-036
  -14.880000000000001         -1.5870696444848714E-036
  -14.820000000000000         -1.7060422865465111E-036
  -14.760000000000000         -1.7254830610308444E-036
  -14.700000000000001         -1.6118178322758128E-036
  -14.640000000000001         -1.3294260714066444E-036
  -14.580000000000000         -8.1730409509664910E-037
  -14.520000000000000         -6.3788152272953093E-038
  -14.460000000000001          9.5607952756825164E-037
  -14.400000000000000          2.2818099523701226E-036
  -14.340000000000000          3.9310959135166478E-036
  -14.280000000000001          5.9085007179070693E-036
  -14.220000000000001          8.1928520577566072E-036
  -14.160000000000000          1.0730689568415155E-035
  -14.100000000000000          1.3455184452749249E-035
  -14.040000000000001          1.6235302476007079E-035
  -13.980000000000000          1.8909336656890039E-035
  -13.920000000000000          2.1232231712457835E-035
  -13.860000000000001          2.2964672546332487E-035
  -13.800000000000001          2.3838133096001718E-035
  -13.740000000000000          2.3490603446806843E-035
  -13.680000000000000          2.1412976859727484E-035
  -13.620000000000001          1.7149761459173804E-035
  -13.560000000000000          1.0183129683184204E-035
  -13.500000000000000          6.0757789416091964E-038
  -13.440000000000001         -1.3616990912368921E-035
  -13.380000000000001         -3.1154894106640957E-035
  -13.320000000000000         -5.2700361403161205E-035
  -13.260000000000000         -7.8208332961578578E-035
  -13.200000000000001         -1.0731628857412997E-034
  -13.140000000000001         -1.3936764607374816E-034
  -13.080000000000000         -1.7333862612878405E-034
  -13.020000000000000         -2.0780311752142650E-034
  -12.960000000000001         -2.4075747181553304E-034
  -12.900000000000000         -2.6965106078348186E-034
  -12.840000000000000         -2.9140362321418110E-034
  -12.780000000000001         -3.0238625557729294E-034
  -12.720000000000001         -2.9849099965129026E-034
  -12.660000000000000         -2.7522753752318285E-034
  -12.600000000000000         -2.2786588273927350E-034
  -12.540000000000001         -1.5165803047513821E-034
  -12.480000000000000         -4.2106899462903124E-035
  -12.420000000000000          1.0469402937021261E-034
  -12.360000000000001          2.9166690150079610E-034
  -12.300000000000001          5.2025241014829314E-034
  -12.240000000000000          7.8989479029951559E-034
  -12.180000000000000          1.0974867196236700E-033
  -12.120000000000001          1.4367901748829450E-033
  -12.060000000000000          1.7978707469601201E-033
  -12.000000000000000          2.1665797248881394E-033
  -11.940000000000001          2.5241265873236532E-033
  -11.880000000000001          2.8467955423557258E-033
  -11.820000000000000          3.1058470461119608E-033
  -11.760000000000000          3.2677116831470574E-033
  -11.700000000000001          3.2944357993798105E-033
  -11.640000000000001          3.1445808970795241E-033
  -11.580000000000000          2.7745231622346894E-033
  -11.520000000000000          2.1402259981329833E-033
  -11.460000000000001          1.1996061907320408E-033
  -11.400000000000000         -8.4616286374637941E-035
  -11.340000000000000         -1.7415275482639664E-033
  -11.280000000000001         -3.7881086682621778E-033
  -11.220000000000001         -6.2249336010578354E-033
  -11.160000000000000         -9.0315523223770163E-033
  -11.100000000000000         -1.2161755414315434E-032
  -11.040000000000001         -1.5538926522639796E-032
  -10.980000000000000         -1.9051752201693773E-032
  -10.920000000000000         -2.2550632436511827E-032
  -10.860000000000001         -2.5845163335246618E-032
  -10.800000000000001         -2.8703079289231408E-032
  -10.740000000000000         -3.0851129604078471E-032
  -10.680000000000000         -3.1978357152993183E-032
  -10.620000000000001         -3.1742232142033846E-032
  -10.560000000000000         -2.9778049951965340E-032
  -10.500000000000000         -2.5711976375209586E-032
  -10.440000000000001         -1.9178010235912799E-032
  -10.380000000000001         -9.8390046079236055E-033
  -10.320000000000000          2.5883093348118733E-033
  -10.260000000000000          1.8304495903605987E-032
  -10.200000000000001          3.7395353935333326E-032
  -10.140000000000001          5.9797371797101802E-032
  -10.080000000000000          8.5261796326841467E-032
  -10.020000000000001          1.1331889461072306E-031
  -9.9600000000000009          1.4324413864744371E-031
  -9.9000000000000004          1.7402857003805486E-031
  -9.8399999999999999          2.0435580279251995E-031
  -9.7800000000000011          2.3258859992636970E-031
  -9.7200000000000006          2.5676793456058976E-031
  -9.6600000000000001          2.7462789387184794E-031
  -9.6000000000000014          2.8362933284955625E-031
  -9.5400000000000009          2.8101562989320107E-031
  -9.4800000000000004          2.6389291139443878E-031
  -9.4199999999999999          2.2933705576258675E-031
  -9.3600000000000012          1.7452886071623708E-031
  -9.3000000000000007          9.6917381054290530E-032
  -9.2400000000000002         -5.5891536081811784E-033
  -9.1799999999999997         -1.3440772024616747E-031
  -9.1200000000000010         -2.9004444999461725E-031
  -9.0600000000000005         -4.7184458251580371E-031
  -9.0000000000000000         -6.7773691346895513E-031
  -8.9400000000000013         -9.0398354014171346E-031
  -8.8800000000000008         -1.1449483644366782E-030
  -8.8200000000000003         -1.3928996099780878E-030
  -8.7599999999999998         -1.6378639475767012E-030
  -8.7000000000000011         -1.8675503156827630E-030
  -8.6400000000000006         -2.0673656021142862E-030
  -8.5800000000000001         -2.2205405626250835E-030
  -8.5200000000000014         -2.3083877664106419E-030
  -8.4600000000000009         -2.3107105979742814E-030
  -8.4000000000000004         -2.2063774909448265E-030
  -8.3399999999999999         -1.9740758411763472E-030
  -8.2800000000000011         -1.5932517559639579E-030
  -8.2200000000000006         -1.0452332268319704E-030
  -8.1600000000000001         -3.1453247500321536E-031
  -8.1000000000000014          6.0969612715218985E-031
  -8.0400000000000009          1.7320691852074045E-030
  -7.9800000000000004          3.0493038586252356E-030
  -7.9200000000000017          4.5485187994269121E-030
  -7.8599999999999994          6.2055773544564235E-030
  -7.8000000000000007          7.9835541635920383E-030
  -7.7400000000000020          9.8314288952439698E-030
  -7.6799999999999997          1.1683108522240473E-029
  -7.6200000000000010          1.3456900513490761E-029
  -7.5600000000000023          1.5055560412838061E-029
  -7.5000000000000000          1.6367037829820950E-029
  -7.4400000000000013          1.7266048026206220E-029
  -7.3799999999999990          1.7616575229781949E-029
  -7.3200000000000003          1.7275415395321088E-029
  -7.2600000000000016          1.6096821698522065E-029
  -7.1999999999999993          1.3938295766330593E-029
  -7.1400000000000006          1.0667530247044665E-029
  -7.0800000000000018          6.1704427880469755E-030
  -7.0199999999999996          3.6020227090938406E-031
  -6.9600000000000009         -6.8129405385070227E-030
  -6.9000000000000021         -1.5351242629107785E-029
  -6.8399999999999999         -2.5198842091072901E-029
  -6.7800000000000011         -3.6231266115317960E-029
  -6.7199999999999989         -4.8245604241703825E-029
  -6.6600000000000001         -6.0951885351315930E-029
  -6.6000000000000014         -7.3966260012152041E-029
  -6.5399999999999991         -8.6806719501978561E-029
  -6.4800000000000004         -9.8892005655066165E-029
  -6.4200000000000017         -1.0954449776706483E-028
  -6.3599999999999994         -1.1799772367549693E-028
  -6.3000000000000007         -1.2340924311845629E-028
  -6.2400000000000020         -1.2487942585212809E-028
  -6.1799999999999997         -1.2147663003247887E-028
  -6.1200000000000010         -1.1226898844585879E-028
  -6.0600000000000023         -9.6362999760650333E-029
  -6.0000000000000000         -7.2948639414502550E-029
  -5.9400000000000013         -4.1350523722743288E-029
  -5.8799999999999990         -1.0842654357467856E-030
  -5.8200000000000003          4.8083241641521570E-029
  -5.7600000000000016          1.0607115279021097E-028
  -5.6999999999999993          1.7242183802914271E-028
  -5.6400000000000006          2.4624026084050760E-028
  -5.5800000000000018          3.2613867333884469E-028
  -5.5199999999999996          4.1018967473515088E-028
  -5.4600000000000009          4.9589151422080306E-028
  -5.4000000000000021          5.8014924090310228E-028
  -5.3399999999999999          6.5927595231675141E-028
  -5.2800000000000011          7.2901786296521257E-028
  -5.2200000000000024          7.8460720349161999E-028
  -5.1600000000000001          8.2084620956389621E-028
  -5.1000000000000014          8.3222538316096041E-028
  -5.0399999999999991          8.1307793278070286E-028
  -4.9800000000000004          7.5777127955701649E-028
  -4.9200000000000017          6.6093613939944098E-028
  -4.8599999999999994          5.1773100913594555E-028
  -4.8000000000000007          3.2413860024216575E-028
  -4.7400000000000020          7.7289615391507257E-029
  -4.6799999999999997         -2.2419417351650575E-028
  -4.6200000000000010         -5.7984707091467203E-028
  -4.5600000000000023         -9.8700747525769327E-028
  -4.5000000000000000         -1.4404823645079492E-027
  -4.4400000000000013         -1.9322426742063723E-027
  -4.3799999999999990         -2.4511691178578163E-027
  -4.3200000000000003         -2.9828660614121743E-027
  -4.2600000000000016         -3.5095645260460886E-027
  -4.1999999999999993         -4.0101360812161352E-027
  -4.1400000000000006         -4.4602371438513067E-027
  -4.0800000000000018         -4.8326030736002929E-027
  -4.0199999999999996         -5.0975109489920172E-027
  -3.9600000000000009         -5.2234226272340872E-027
  -3.9000000000000021         -5.1778233032630302E-027
  -3.8399999999999999         -4.9282545938366368E-027
  -3.7800000000000011         -4.4435448314768915E-027
  -3.7200000000000024         -3.6952250043413451E-027
  -3.6600000000000001         -2.6591152888925675E-027
  -3.6000000000000014         -1.3170496195221944E-027
  -3.5399999999999991          3.4129430453571121E-028
  -3.4800000000000004          2.3165105981512860E-027
  -3.4200000000000017          4.5975870730081908E-027
  -3.3599999999999994          7.1600997651877824E-027
  -3.3000000000000007          9.9645688614387094E-027
  -3.2400000000000020          1.2955053367968175E-026
  -3.1799999999999997          1.6058091558740325E-026
  -3.1200000000000010          1.9182084136512540E-026
  -3.0600000000000023          2.2217221727955951E-026
  -3.0000000000000000          2.5036072175142039E-026
  -2.9400000000000013          2.7494898319629576E-026
  -2.8800000000000026          2.9435829534747145E-026
  -2.8200000000000003          3.0689923675082540E-026
  -2.7600000000000016          3.1081204933700210E-026
  -2.6999999999999993          3.0431690610499133E-026
  -2.6400000000000006          2.8567397155531565E-026
  -2.5800000000000018          2.5325304056028549E-026
  -2.5199999999999996          2.0561184321884423E-026
  -2.4600000000000009          1.4158192911045720E-026
  -2.4000000000000021          6.0360349820860994E-027
  -2.3399999999999999         -3.8395284209859420E-027
  -2.2800000000000011         -1.5447089298531482E-026
  -2.2200000000000024         -2.8700227494058335E-026
  -2.1600000000000001         -4.3438784138839393E-026
  -2.1000000000000014         -5.9421159410944505E-026
  -2.0399999999999991         -7.6318081248941040E-026
  -1.9800000000000004         -9.3708359974593209E-026
  -1.9200000000000017         -1.1107708697057408E-025
  -1.8599999999999994         -1.2781675377040074E-025
  -1.8000000000000007         -1.4323183144060716E-025
  -1.7400000000000020         -1.5654713686831669E-025
  -1.6799999999999997         -1.6692051532566016E-025
  -1.6200000000000010         -1.7345993371387718E-025
  -1.5600000000000023         -1.7524540063727687E-025
  -1.5000000000000000         -1.7135552670526124E-025
  -1.4400000000000013         -1.6089885980564421E-025
  -1.3800000000000026         -1.4304957137677459E-025
  -1.3200000000000003         -1.1708705673671013E-025
  -1.2600000000000016         -8.2438832882483495E-026
  -1.1999999999999993         -3.8725758434412400E-026
  -1.1400000000000006          1.4191578446619841E-026
  -1.0800000000000018          7.6166543178431205E-026
  -1.0199999999999996          1.4672197259299798E-025
 -0.96000000000000085          2.2500914220003383E-025
 -0.90000000000000213          3.0977222946711678E-025
 -0.83999999999999986          3.9932051952157781E-025
 -0.78000000000000114          4.9151030237634363E-025
 -0.72000000000000242          5.8373877519220632E-025
 -0.66000000000000014          6.7295245302966580E-025
 -0.60000000000000142          7.5567148004754511E-025
 -0.53999999999999915          8.2803267247736340E-025
 -0.48000000000000043          8.8585187099056380E-025
 -0.42000000000000171          9.2470784906794189E-025
 -0.35999999999999943          9.4004720349204820E-025
 -0.30000000000000071          9.2731165372128674E-025
 -0.24000000000000199          8.8208626725897054E-025
 -0.17999999999999972          8.0026759925340717E-025
 -0.12000000000000099          6.7824888288499953E-025
  -6.0000000000002274E-002     5.1312015611827439E-025
   0.0000000000000000          3.0287825233524627E-025
   5.9999999999998721E-002     4.6641406778203514E-026
  0.11999999999999744         -2.5513652721009394E-025
  0.17999999999999972         -6.0046114684306561E-025
  0.23999999999999844         -9.8560772821052806E-025
  0.30000000000000071         -1.4049572158729193E-024
  0.35999999999999943         -1.8508657916868178E-024
  0.41999999999999815         -2.3135786021951817E-024
  0.48000000000000043         -2.7811958892461033E-024
  0.53999999999999915         -3.2397031838967593E-024
  0.59999999999999787         -3.6730725407015455E-024
  0.66000000000000014         -4.0634441375667260E-024
  0.71999999999999886         -4.3913943097087694E-024
  0.77999999999999758         -4.6362952502367721E-024
  0.83999999999999986         -4.7767701113347339E-024
  0.89999999999999858         -4.7912435966702870E-024
  0.96000000000000085         -4.6585841790847080E-024
   1.0199999999999996         -4.3588344218275940E-024
   1.0799999999999983         -3.8740203111020303E-024
   1.1400000000000006         -3.1890224848428530E-024
   1.1999999999999993         -2.2924980570237498E-024
   1.2599999999999980         -1.1778270189486302E-024
   1.3200000000000003          1.5593987269308660E-025
   1.3799999999999990          1.7031613013601401E-024
   1.4399999999999977          3.4507460845664162E-024
   1.5000000000000000          5.3773883436117558E-024
   1.5599999999999987          7.4529404772279397E-024
   1.6199999999999974          9.6379576780420296E-024
   1.6799999999999997          1.1883456053927163E-023
   1.7399999999999984          1.4130924308953386E-023
   1.8000000000000007          1.6312626640327062E-023
   1.8599999999999994          1.8352231985504249E-023
   1.9199999999999982          2.0165798248769996E-023
   1.9800000000000004          2.1663133363453125E-023
   2.0399999999999991          2.2749549253032236E-023
   2.0999999999999979          2.3328019595729426E-023
   2.1600000000000001          2.3301726464742539E-023
   2.2199999999999989          2.2576982271780715E-023
   2.2799999999999976          2.1066497533667743E-023
   2.3399999999999999          1.8692943517623647E-023
   2.3999999999999986          1.5392748269347878E-023
   2.4599999999999973          1.1120048957507897E-023
   2.5199999999999996          5.8507000162751412E-024
   2.5799999999999983         -4.1375459101365572E-025
   2.6400000000000006         -7.6423049538233078E-024
   2.6999999999999993         -1.5770981236629669E-023
   2.7599999999999980         -2.4699840186026270E-023
   2.8200000000000003         -3.4290545037575148E-023
   2.8799999999999990         -4.4364720940802910E-023
   2.9399999999999977         -5.4703243273300008E-023
   3.0000000000000000         -6.5046592966269626E-023
   3.0599999999999987         -7.5096453196192752E-023
   3.1199999999999974         -8.4518640838276106E-023
   3.1799999999999997         -9.2947505791634806E-023
   3.2399999999999984         -9.9991866935659416E-023
   3.3000000000000007         -1.0524252837746533E-022
   3.3599999999999994         -1.0828139363967872E-022
   3.4199999999999982         -1.0869213648035262E-022
   3.4800000000000004         -1.0607232100290491E-022
   3.5399999999999991         -1.0004686019424187E-022
   3.5999999999999979         -9.0282603073184351E-023
   3.6600000000000001         -7.6503767614133722E-023
   3.7199999999999989         -5.8507969326956227E-023
   3.7799999999999976         -3.6182364679004520E-023
   3.8399999999999999         -9.5195907106279429E-024
   3.8999999999999986          2.1367075279162061E-023
   3.9599999999999973          5.6229839418375438E-023
   4.0199999999999996          9.4674249645242945E-023
   4.0799999999999983          1.3614961950356591E-022
   4.1400000000000006          1.7994239094749098E-022
   4.1999999999999993          2.2517309041313263E-022
   4.2599999999999980          2.7079757842731120E-022
   4.3200000000000003          3.1561292558209617E-022
   4.3799999999999990          3.5826849728648935E-022
   4.4399999999999977          3.9728270299882593E-022
   4.5000000000000000          4.3106558336905045E-022
   4.5599999999999987          4.5794734877257831E-022
   4.6199999999999974          4.7621313414577422E-022
   4.6799999999999997          4.8414361732170691E-022
   4.7399999999999984          4.8006121617266473E-022
   4.7999999999999972          4.6238138056435205E-022
   4.8599999999999994          4.2966829357675076E-022
   4.9199999999999982          3.8069392161963488E-022
   4.9800000000000004          3.1449935050664937E-022
   5.0399999999999991          2.3045709495064149E-022
   5.0999999999999979          1.2833268592139942E-022
   5.1600000000000001          8.3439434399518018E-024
   5.2199999999999989         -1.2878416866910489E-022
   5.2799999999999976         -2.8177072336164760E-022
   5.3399999999999999         -4.4873884900051891E-022
   5.3999999999999986         -6.2718593016363104E-022
   5.4599999999999973         -8.1396696512195038E-022
   5.5199999999999996         -1.0052921712617716E-021
   5.5799999999999983         -1.1967420248380070E-021
   5.6400000000000006         -1.3833004827073502E-021
   5.6999999999999993         -1.5594079471223516E-021
   5.7599999999999980         -1.7190360708851210E-021
   5.8200000000000003         -1.8557837998987167E-021
   5.8799999999999990         -1.9629956543284875E-021
   5.9399999999999977         -2.0339021703140396E-021
   6.0000000000000000         -2.0617809235836388E-021
   6.0599999999999987         -2.0401367690068635E-021
   6.1199999999999974         -1.9628993370660739E-021
   6.1799999999999997         -1.8246347831948647E-021
   6.2399999999999984         -1.6207671242774690E-021
   6.2999999999999972         -1.3478065717439475E-021
   6.3599999999999994         -1.0035773358508760E-021
   6.4199999999999982         -5.8744199341552600E-022
   6.4800000000000004         -1.0051305401661618E-022
   6.5399999999999991          4.5415239071074905E-022
   6.5999999999999979          1.0713847542465786E-021
   6.6600000000000001          1.7437644583670934E-021
   6.7199999999999989          2.4615273548285045E-021
   6.7799999999999976          3.2125145854542672E-021
   6.8399999999999999          3.9821795990099351E-021
   6.8999999999999986          4.7536537794049626E-021
   6.9599999999999973          5.5078789964589892E-021
   7.0199999999999996          6.2238118495339697E-021
   7.0799999999999983          6.8787023691594920E-021
   7.1400000000000006          7.4484467962632941E-021
   7.1999999999999993          7.9080204504648303E-021
   7.2599999999999980          8.2319826568407207E-021
   7.3200000000000003          8.3950543395975230E-021
   7.3799999999999990          8.3727612151128150E-021
   7.4399999999999977          8.1421333613036628E-021
   7.5000000000000000          7.6824518373413642E-021
   7.5599999999999987          6.9760303816521371E-021
   7.6199999999999974          6.0090122995773173E-021
   7.6799999999999997          4.7721738314485454E-021
   7.7399999999999984          3.2617061196112730E-021
   7.7999999999999972          1.4799584506726110E-021
   7.8599999999999994         -5.6387948241500110E-022
   7.9199999999999982         -2.8531799637572212E-021
   7.9800000000000004         -5.3633901204219085E-021
   8.0399999999999991         -8.0616792430189661E-021
   8.1000000000000014         -1.0906739624548357E-020
   8.1599999999999966         -1.3848772255534310E-020
   8.2199999999999989         -1.6829667118889433E-020
   8.2800000000000011         -1.9783411394214942E-020
   8.3399999999999963         -2.2636718011039526E-020
   8.3999999999999986         -2.5309919289800687E-020
   8.4600000000000009         -2.7718089400623416E-020
   8.5199999999999960         -2.9772437648215025E-020
   8.5799999999999983         -3.1381940638110470E-020
   8.6400000000000006         -3.2455219864550059E-020