  -24.000000000000000          0.0000000000000000     
  -23.940000000000001          0.0000000000000000     
  -23.879999999999999          0.0000000000000000     
  -23.820000000000000          0.0000000000000000     
  -23.760000000000002          0.0000000000000000     
  -23.699999999999999          0.0000000000000000     
  -23.640000000000001          0.0000000000000000     
  -23.579999999999998          0.0000000000000000     
  -23.520000000000000          0.0000000000000000     
  -23.460000000000001          0.0000000000000000     
  -23.399999999999999          0.0000000000000000     
  -23.340000000000000          0.0000000000000000     
  -23.280000000000001          0.0000000000000000     
  -23.219999999999999          0.0000000000000000     
  -23.160000000000000          0.0000000000000000     
  -23.100000000000001          0.0000000000000000     
  -23.039999999999999          0.0000000000000000     
  -22.980000000000000          0.0000000000000000     
  -22.920000000000002          0.0000000000000000     
  -22.859999999999999          0.0000000000000000     
  -22.800000000000001          0.0000000000000000     
  -22.739999999999998          0.0000000000000000     
  -22.680000000000000          0.0000000000000000     
  -22.620000000000001          0.0000000000000000     
  -22.559999999999999          0.0000000000000000     
  -22.500000000000000          0.0000000000000000     
  -22.440000000000001          0.0000000000000000     
  -22.379999999999999          0.0000000000000000     
  -22.320000000000000          0.0000000000000000     
  -22.260000000000002          0.0000000000000000     
  -22.199999999999999          0.0000000000000000     
  -22.140000000000001          0.0000000000000000     
  -22.079999999999998          0.0000000000000000     
  -22.020000000000000          0.0000000000000000     
  -21.960000000000001          0.0000000000000000     
  -21.899999999999999          0.0000000000000000     
  -21.840000000000000          0.0000000000000000     
  -21.780000000000001          0.0000000000000000     
  -21.719999999999999          0.0000000000000000     
  -21.660000000000000          0.0000000000000000     
  -21.600000000000001          0.0000000000000000     
  -21.539999999999999          0.0000000000000000     
  -21.480000000000000          0.0000000000000000     
  -21.420000000000002          0.0000000000000000     
  -21.359999999999999          0.0000000000000000     
  -21.300000000000001          0.0000000000000000     
  -21.240000000000002          0.0000000000000000     
  -21.180000000000000          0.0000000000000000     
  -21.120000000000001          0.0000000000000000     
  -21.059999999999999          0.0000000000000000     
  -21.000000000000000          0.0000000000000000     
  -20.940000000000001          0.0000000000000000     
  -20.879999999999999          0.0000000000000000     
  -20.820000000000000          0.0000000000000000     
  -20.760000000000002          0.0000000000000000     
  -20.699999999999999          0.0000000000000000     
  -20.640000000000001          0.0000000000000000     
  -20.579999999999998          0.0000000000000000     
  -20.520000000000000          0.0000000000000000     
  -20.460000000000001          0.0000000000000000     
  -20.399999999999999          0.0000000000000000     
  -20.340000000000000          0.0000000000000000     
  -20.280000000000001          0.0000000000000000     
  -20.219999999999999          0.0000000000000000     
  -20.160000000000000          0.0000000000000000     
  -20.100000000000001          0.0000000000000000     
  -20.039999999999999          0.0000000000000000     
  -19.980000000000000          0.0000000000000000     
  -19.920000000000002          0.0000000000000000     
  -19.859999999999999          0.0000000000000000     
  -19.800000000000001          0.0000000000000000     
  -19.740000000000002          0.0000000000000000     
  -19.680000000000000          0.0000000000000000     
  -19.620000000000001          0.0000000000000000     
  -19.560000000000002          0.0000000000000000     
  -19.500000000000000          0.0000000000000000     
  -19.440000000000001          0.0000000000000000     
  -19.379999999999999          0.0000000000000000     
  -19.320000000000000          0.0000000000000000     
  -19.259999999999998          0.0000000000000000     
  -19.199999999999999          0.0000000000000000     
  -19.140000000000001          0.0000000000000000     
  -19.079999999999998          0.0000000000000000     
  -19.020000000000000          0.0000000000000000     
  -18.960000000000001          0.0000000000000000     
  -18.899999999999999          0.0000000000000000     
  -18.840000000000000          0.0000000000000000     
  -18.780000000000001          0.0000000000000000     
  -18.719999999999999          0.0000000000000000     
  -18.660000000000000          0.0000000000000000     
  -18.600000000000001          0.0000000000000000     
  -18.539999999999999          0.0000000000000000     
  -18.480000000000000          0.0000000000000000     
  -18.420000000000002          0.0000000000000000     
  -18.359999999999999          0.0000000000000000     
  -18.300000000000001          0.0000000000000000     
  -18.240000000000002          0.0000000000000000     
  -18.180000000000000          0.0000000000000000     
  -18.120000000000001          0.0000000000000000     
  -18.060000000000002          0.0000000000000000     
  -18.000000000000000          0.0000000000000000     
  -17.940000000000001          0.0000000000000000     
  -17.879999999999999          0.0000000000000000     
  -17.820000000000000          0.0000000000000000     
  -17.759999999999998          0.0000000000000000     
  -17.699999999999999          0.0000000000000000     
  -17.640000000000001          0.0000000000000000     
  -17.579999999999998          0.0000000000000000     
  -17.520000000000000          0.0000000000000000     
  -17.460000000000001          0.0000000000000000     
  -17.399999999999999          0.0000000000000000     
  -17.340000000000000          0.0000000000000000     
  -17.280000000000001          0.0000000000000000     
  -17.219999999999999          0.0000000000000000     
  -17.160000000000000          0.0000000000000000     
  -17.100000000000001          0.0000000000000000     
  -17.039999999999999          0.0000000000000000     
  -16.980000000000000          0.0000000000000000     
  -16.920000000000002          0.0000000000000000     
  -16.859999999999999          0.0000000000000000     
  -16.800000000000001          0.0000000000000000     
  -16.740000000000002          0.0000000000000000     
  -16.680000000000000          0.0000000000000000     
  -16.620000000000001          0.0000000000000000     
  -16.560000000000002          0.0000000000000000     
  -16.500000000000000          0.0000000000000000     
  -16.440000000000001          0.0000000000000000     
  -16.379999999999999          0.0000000000000000     
  -16.320000000000000          0.0000000000000000     
  -16.260000000000002          0.0000000000000000     
  -16.199999999999999          0.0000000000000000     
  -16.140000000000001          0.0000000000000000     
  -16.079999999999998          0.0000000000000000     
  -16.020000000000000          0.0000000000000000     
  -15.960000000000001          0.0000000000000000     
  -15.900000000000000          0.0000000000000000     
  -15.840000000000000          0.0000000000000000     
  -15.780000000000001          0.0000000000000000     
  -15.720000000000001          0.0000000000000000     
  -15.660000000000000          0.0000000000000000     
  -15.600000000000000          0.0000000000000000     
  -15.540000000000001          0.0000000000000000     
  -15.480000000000000          0.0000000000000000     
  -15.420000000000000          0.0000000000000000     
  -15.359999999999999          0.0000000000000000     
  -15.300000000000001          0.0000000000000000     
  -15.240000000000000          0.0000000000000000     
  -15.180000000000000          0.0000000000000000     
  -15.120000000000001          0.0000000000000000     
  -15.060000000000000          0.0000000000000000     
  -15.000000000000000          0.0000000000000000     
  -14.940000000000000          0.0000000000000000     
  -14.880000000000001          0.0000000000000000     
  -14.820000000000000          0.0000000000000000     
  -14.760000000000000          0.0000000000000000     
  -14.700000000000001          0.0000000000000000     
  -14.640000000000001          0.0000000000000000     
  -14.580000000000000          0.0000000000000000     
  -14.520000000000000          0.0000000000000000     
  -14.460000000000001          0.0000000000000000     
  -14.400000000000000          0.0000000000000000     
  -14.340000000000000          0.0000000000000000     
  -14.280000000000001          0.0000000000000000     
  -14.220000000000001          0.0000000000000000     
  -14.160000000000000          0.0000000000000000     
  -14.100000000000000          0.0000000000000000     
  -14.040000000000001          0.0000000000000000     
  -13.980000000000000          0.0000000000000000     
  -13.920000000000000          0.0000000000000000     
  -13.860000000000001          0.0000000000000000     
  -13.800000000000001          0.0000000000000000     
  -13.740000000000000          0.0000000000000000     
  -13.680000000000000          0.0000000000000000     
  -13.620000000000001          0.0000000000000000     
  -13.560000000000000          0.0000000000000000     
  -13.500000000000000          0.0000000000000000     
  -13.440000000000001          0.0000000000000000     
  -13.380000000000001          0.0000000000000000     
  -13.320000000000000          0.0000000000000000     
  -13.260000000000000          0.0000000000000000     
  -13.200000000000001          0.0000000000000000     
  -13.140000000000001          0.0000000000000000     
  -13.080000000000000          0.0000000000000000     
  -13.020000000000000          0.0000000000000000     
  -12.960000000000001          0.0000000000000000     
  -12.900000000000000          0.0000000000000000     
  -12.840000000000000          0.0000000000000000     
  -12.780000000000001          0.0000000000000000     
  -12.720000000000001          0.0000000000000000     
  -12.660000000000000          0.0000000000000000     
  -12.600000000000000          0.0000000000000000     
  -12.540000000000001          0.0000000000000000     
  -12.480000000000000          0.0000000000000000     
  -12.420000000000000          0.0000000000000000     
  -12.360000000000001          0.0000000000000000     
  -12.300000000000001          0.0000000000000000     
  -12.240000000000000          0.0000000000000000     
  -12.180000000000000          0.0000000000000000     
  -12.120000000000001          0.0000000000000000     
  -12.060000000000000          0.0000000000000000     
  -12.000000000000000          0.0000000000000000     
  -11.940000000000001          0.0000000000000000     
  -11.880000000000001          0.0000000000000000     
  -11.820000000000000          0.0000000000000000     
  -11.760000000000000          0.0000000000000000     
  -11.700000000000001          0.0000000000000000     
  -11.640000000000001          0.0000000000000000     
  -11.580000000000000          0.0000000000000000     
  -11.520000000000000          0.0000000000000000     
  -11.460000000000001          0.0000000000000000     
  -11.400000000000000          0.0000000000000000     
  -11.340000000000000          0.0000000000000000     
  -11.280000000000001          0.0000000000000000     
  -11.220000000000001          0.0000000000000000     
  -11.160000000000000          0.0000000000000000     
  -11.100000000000000          0.0000000000000000     
  -11.040000000000001          0.0000000000000000     
  -10.980000000000000          0.0000000000000000     
  -10.920000000000000          0.0000000000000000     
  -10.860000000000001          0.0000000000000000     
  -10.800000000000001          0.0000000000000000     
  -10.740000000000000          0.0000000000000000     
  -10.680000000000000          0.0000000000000000     
  -10.620000000000001          0.0000000000000000     
  -10.560000000000000          0.0000000000000000     
  -10.500000000000000          0.0000000000000000     
  -10.440000000000001          0.0000000000000000     
  -10.380000000000001          0.0000000000000000     
  -10.320000000000000          0.0000000000000000     
  -10.260000000000000          0.0000000000000000     
  -10.200000000000001          0.0000000000000000     
  -10.140000000000001          0.0000000000000000     
  -10.080000000000000          0.0000000000000000     
  -10.020000000000001          0.0000000000000000     
  -9.9600000000000009          0.0000000000000000     
  -9.9000000000000004          0.0000000000000000     
  -9.8399999999999999          0.0000000000000000     
  -9.7800000000000011          0.0000000000000000     
  -9.7200000000000006          0.0000000000000000     
  -9.6600000000000001          0.0000000000000000     
  -9.6000000000000014          0.0000000000000000     
  -9.5400000000000009          0.0000000000000000     
  -9.4800000000000004          0.0000000000000000     
  -9.4199999999999999          0.0000000000000000     
  -9.3600000000000012          0.0000000000000000     
  -9.3000000000000007          0.0000000000000000     
  -9.2400000000000002          0.0000000000000000     
  -9.1799999999999997          0.0000000000000000     
  -9.1200000000000010          0.0000000000000000     
  -9.0600000000000005          0.0000000000000000     
  -9.0000000000000000          0.0000000000000000     
  -8.9400000000000013          0.0000000000000000     
  -8.8800000000000008          0.0000000000000000     
  -8.8200000000000003          0.0000000000000000     
  -8.7599999999999998          0.0000000000000000     
  -8.7000000000000011          0.0000000000000000     
  -8.6400000000000006          0.0000000000000000     
  -8.5800000000000001          0.0000000000000000     
  -8.5200000000000014          0.0000000000000000     
  -8.4600000000000009          0.0000000000000000     
  -8.4000000000000004          0.0000000000000000     
  -8.3399999999999999          0.0000000000000000     
  -8.2800000000000011          0.0000000000000000     
  -8.2200000000000006          0.0000000000000000     
  -8.1600000000000001          0.0000000000000000     
  -8.1000000000000014          0.0000000000000000     
  -8.0400000000000009          0.0000000000000000     
  -7.9800000000000004          0.0000000000000000     
  -7.9200000000000017          0.0000000000000000     
  -7.8599999999999994          0.0000000000000000     
  -7.8000000000000007          0.0000000000000000     
  -7.7400000000000020          0.0000000000000000     
  -7.6799999999999997          0.0000000000000000     
  -7.6200000000000010          0.0000000000000000     
  -7.5600000000000023          0.0000000000000000     
  -7.5000000000000000          0.0000000000000000     
  -7.4400000000000013          0.0000000000000000     
  -7.3799999999999990          0.0000000000000000     
  -7.3200000000000003          0.0000000000000000     
  -7.2600000000000016          0.0000000000000000     
  -7.1999999999999993          0.0000000000000000     
  -7.1400000000000006          0.0000000000000000     
  -7.0800000000000018          0.0000000000000000     
  -7.0199999999999996          0.0000000000000000     
  -6.9600000000000009          0.0000000000000000     
  -6.9000000000000021          0.0000000000000000     
  -6.8399999999999999          0.0000000000000000     
  -6.7800000000000011          0.0000000000000000     
  -6.7199999999999989          0.0000000000000000     
  -6.6600000000000001          0.0000000000000000     
  -6.6000000000000014          0.0000000000000000     
  -6.5399999999999991          0.0000000000000000     
  -6.4800000000000004          0.0000000000000000     
  -6.4200000000000017          0.0000000000000000     
  -6.3599999999999994          0.0000000000000000     
  -6.3000000000000007          0.0000000000000000     
  -6.2400000000000020          0.0000000000000000     
  -6.1799999999999997          0.0000000000000000     
  -6.1200000000000010          0.0000000000000000     
  -6.0600000000000023          0.0000000000000000     
  -6.0000000000000000          0.0000000000000000     
  -5.9400000000000013          0.0000000000000000     
  -5.8799999999999990          0.0000000000000000     
  -5.8200000000000003          0.0000000000000000     
  -5.7600000000000016          0.0000000000000000     
  -5.6999999999999993          0.0000000000000000     
  -5.6400000000000006          0.0000000000000000     
  -5.5800000000000018          0.0000000000000000     
  -5.5199999999999996          0.0000000000000000     
  -5.4600000000000009          0.0000000000000000     
  -5.4000000000000021          0.0000000000000000     
  -5.3399999999999999          0.0000000000000000     
  -5.2800000000000011          0.0000000000000000     
  -5.2200000000000024          0.0000000000000000     
  -5.1600000000000001          0.0000000000000000     
  -5.1000000000000014          0.0000000000000000     
  -5.0399999999999991          0.0000000000000000     
  -4.9800000000000004          0.0000000000000000     
  -4.9200000000000017          0.0000000000000000     
  -4.8599999999999994          0.0000000000000000     
  -4.8000000000000007          0.0000000000000000     
  -4.7400000000000020          0.0000000000000000     
  -4.6799999999999997          0.0000000000000000     
  -4.6200000000000010          0.0000000000000000     
  -4.5600000000000023          0.0000000000000000     
  -4.5000000000000000          0.0000000000000000     
  -4.4400000000000013          0.0000000000000000     
  -4.3799999999999990          0.0000000000000000     
  -4.3200000000000003          0.0000000000000000     
  -4.2600000000000016          0.0000000000000000     
  -4.1999999999999993          0.0000000000000000     
  -4.1400000000000006          0.0000000000000000     
  -4.0800000000000018          0.0000000000000000     
  -4.0199999999999996          0.0000000000000000     
  -3.9600000000000009          0.0000000000000000     
  -3.9000000000000021          0.0000000000000000     
  -3.8399999999999999          0.0000000000000000     
  -3.7800000000000011          0.0000000000000000     
  -3.7200000000000024          0.0000000000000000     
  -3.6600000000000001          0.0000000000000000     
  -3.6000000000000014          0.0000000000000000     
  -3.5399999999999991          0.0000000000000000     
  -3.4800000000000004          0.0000000000000000     
  -3.4200000000000017          0.0000000000000000     
  -3.3599999999999994          0.0000000000000000     
  -3.3000000000000007          0.0000000000000000     
  -3.2400000000000020          0.0000000000000000     
  -3.1799999999999997          0.0000000000000000     
  -3.1200000000000010          0.0000000000000000     
  -3.0600000000000023          0.0000000000000000     
  -3.0000000000000000          0.0000000000000000     
  -2.9400000000000013          0.0000000000000000     
  -2.8800000000000026          0.0000000000000000     
  -2.8200000000000003          0.0000000000000000     
  -2.7600000000000016          0.0000000000000000     
  -2.6999999999999993          0.0000000000000000     
  -2.6400000000000006          0.0000000000000000     
  -2.5800000000000018          0.0000000000000000     
  -2.5199999999999996          0.0000000000000000     
  -2.4600000000000009          0.0000000000000000     
  -2.4000000000000021          0.0000000000000000     
  -2.3399999999999999          0.0000000000000000     
  -2.2800000000000011          0.0000000000000000     
  -2.2200000000000024          0.0000000000000000     
  -2.1600000000000001          0.0000000000000000     
  -2.1000000000000014          0.0000000000000000     
  -2.0399999999999991          0.0000000000000000     
  -1.9800000000000004          0.0000000000000000     
  -1.9200000000000017          0.0000000000000000     
  -1.8599999999999994          0.0000000000000000     
  -1.8000000000000007          0.0000000000000000     
  -1.7400000000000020          0.0000000000000000     
  -1.6799999999999997          0.0000000000000000     
  -1.6200000000000010          0.0000000000000000     
  -1.5600000000000023          0.0000000000000000     
  -1.5000000000000000          0.0000000000000000     
  -1.4400000000000013          0.0000000000000000     
  -1.3800000000000026          0.0000000000000000     
  -1.3200000000000003          0.0000000000000000     
  -1.2600000000000016          0.0000000000000000     
  -1.1999999999999993          0.0000000000000000     
  -1.1400000000000006          0.0000000000000000     
  -1.0800000000000018          0.0000000000000000     
  -1.0199999999999996          0.0000000000000000     
 -0.96000000000000085          0.0000000000000000     
 -0.90000000000000213          0.0000000000000000     
 -0.83999999999999986          0.0000000000000000     
 -0.78000000000000114          0.0000000000000000     
 -0.72000000000000242          0.0000000000000000     
 -0.66000000000000014          0.0000000000000000     
 -0.60000000000000142          0.0000000000000000     
 -0.53999999999999915          0.0000000000000000     
 -0.48000000000000043          0.0000000000000000     
 -0.42000000000000171          0.0000000000000000     
 -0.35999999999999943          0.0000000000000000     
 -0.30000000000000071          0.0000000000000000     
 -0.24000000000000199          0.0000000000000000     
 -0.17999999999999972          0.0000000000000000     
 -0.12000000000000099          0.0000000000000000     
  -6.0000000000002274E-002     0.0000000000000000     
   0.0000000000000000          0.0000000000000000     
   5.9999999999998721E-002     0.0000000000000000     
  0.11999999999999744          0.0000000000000000     
  0.17999999999999972          0.0000000000000000     
  0.23999999999999844          0.0000000000000000     
  0.30000000000000071          0.0000000000000000     
  0.35999999999999943          0.0000000000000000     
  0.41999999999999815          0.0000000000000000     
  0.48000000000000043          0.0000000000000000     
  0.53999999999999915          0.0000000000000000     
  0.59999999999999787          0.0000000000000000     
  0.66000000000000014          0.0000000000000000     
  0.71999999999999886          0.0000000000000000     
  0.77999999999999758          0.0000000000000000     
  0.83999999999999986          0.0000000000000000     
  0.89999999999999858          0.0000000000000000     
  0.96000000000000085          0.0000000000000000     
   1.0199999999999996          0.0000000000000000     
   1.0799999999999983          0.0000000000000000     
   1.1400000000000006          0.0000000000000000     
   1.1999999999999993          0.0000000000000000     
   1.2599999999999980          0.0000000000000000     
   1.3200000000000003          0.0000000000000000     
   1.3799999999999990          0.0000000000000000     
   1.4399999999999977          0.0000000000000000     
   1.5000000000000000          0.0000000000000000     
   1.5599999999999987          0.0000000000000000     
   1.6199999999999974          0.0000000000000000     
   1.6799999999999997          0.0000000000000000     
   1.7399999999999984          0.0000000000000000     
   1.8000000000000007          0.0000000000000000     
   1.8599999999999994          0.0000000000000000     
   1.9199999999999982          0.0000000000000000     
   1.9800000000000004          0.0000000000000000     
   2.0399999999999991          0.0000000000000000     
   2.0999999999999979          0.0000000000000000     
   2.1600000000000001          0.0000000000000000     
   2.2199999999999989          0.0000000000000000     
   2.2799999999999976          0.0000000000000000     
   2.3399999999999999          0.0000000000000000     
   2.3999999999999986          0.0000000000000000     
   2.4599999999999973          0.0000000000000000     
   2.5199999999999996          0.0000000000000000     
   2.5799999999999983          0.0000000000000000     
   2.6400000000000006          0.0000000000000000     
   2.6999999999999993          0.0000000000000000     
   2.7599999999999980          0.0000000000000000     
   2.8200000000000003          0.0000000000000000     
   2.8799999999999990          0.0000000000000000     
   2.9399999999999977          0.0000000000000000     
   3.0000000000000000          0.0000000000000000     
   3.0599999999999987          0.0000000000000000     
   3.1199999999999974          0.0000000000000000     
   3.1799999999999997          0.0000000000000000     
   3.2399999999999984          0.0000000000000000     
   3.3000000000000007          0.0000000000000000     
   3.3599999999999994          0.0000000000000000     
   3.4199999999999982          0.0000000000000000     
   3.4800000000000004          0.0000000000000000     
   3.5399999999999991          0.0000000000000000     
   3.5999999999999979          0.0000000000000000     
   3.6600000000000001          0.0000000000000000     
   3.7199999999999989          0.0000000000000000     
   3.7799999999999976          0.0000000000000000     
   3.8399999999999999          0.0000000000000000     
   3.8999999999999986          0.0000000000000000     
   3.9599999999999973          0.0000000000000000     
   4.0199999999999996          0.0000000000000000     
   4.0799999999999983          0.0000000000000000     
   4.1400000000000006          0.0000000000000000     
   4.1999999999999993          0.0000000000000000     
   4.2599999999999980          0.0000000000000000     
   4.3200000000000003          0.0000000000000000     
   4.3799999999999990          0.0000000000000000     
   4.4399999999999977          0.0000000000000000     
   4.5000000000000000          0.0000000000000000     
   4.5599999999999987          0.0000000000000000     
   4.6199999999999974          0.0000000000000000     
   4.6799999999999997          0.0000000000000000     
   4.7399999999999984          0.0000000000000000     
   4.7999999999999972          0.0000000000000000     
   4.8599999999999994          0.0000000000000000     
   4.9199999999999982          0.0000000000000000     
   4.9800000000000004          0.0000000000000000     
   5.0399999999999991          0.0000000000000000     
   5.0999999999999979          0.0000000000000000     
   5.1600000000000001          0.0000000000000000     
   5.2199999999999989          0.0000000000000000     
   5.2799999999999976          0.0000000000000000     
   5.3399999999999999          0.0000000000000000     
   5.3999999999999986          0.0000000000000000     
   5.4599999999999973          0.0000000000000000     
   5.5199999999999996          0.0000000000000000     
   5.5799999999999983          0.0000000000000000     
   5.6400000000000006          0.0000000000000000     
   5.6999999999999993          0.0000000000000000     
   5.7599999999999980          0.0000000000000000     
   5.8200000000000003          0.0000000000000000     
   5.8799999999999990          0.0000000000000000     
   5.9399999999999977          0.0000000000000000     
   6.0000000000000000          0.0000000000000000     
   6.0599999999999987          0.0000000000000000     
   6.1199999999999974          0.0000000000000000     
   6.1799999999999997          0.0000000000000000     
   6.2399999999999984          0.0000000000000000     
   6.2999999999999972          0.0000000000000000     
   6.3599999999999994          0.0000000000000000     
   6.4199999999999982          0.0000000000000000     
   6.4800000000000004          0.0000000000000000     
   6.5399999999999991          0.0000000000000000     
   6.5999999999999979          0.0000000000000000     
   6.6600000000000001          0.0000000000000000     
   6.7199999999999989          0.0000000000000000     
   6.7799999999999976          0.0000000000000000     
   6.8399999999999999          0.0000000000000000     
   6.8999999999999986          0.0000000000000000     
   6.9599999999999973          0.0000000000000000     
   7.0199999999999996          0.0000000000000000     
   7.0799999999999983          0.0000000000000000     
   7.1400000000000006          0.0000000000000000     
   7.1999999999999993          0.0000000000000000     
   7.2599999999999980          0.0000000000000000     
   7.3200000000000003          0.0000000000000000     
   7.3799999999999990          0.0000000000000000     
   7.4399999999999977          0.0000000000000000     
   7.5000000000000000          0.0000000000000000     
   7.5599999999999987          0.0000000000000000     
   7.6199999999999974          0.0000000000000000     
   7.6799999999999997          0.0000000000000000     
   7.7399999999999984          0.0000000000000000     
   7.7999999999999972          0.0000000000000000     
   7.8599999999999994          0.0000000000000000     
   7.9199999999999982          0.0000000000000000     
   7.9800000000000004          0.0000000000000000     
   8.0399999999999991          0.0000000000000000     
   8.1000000000000014          0.0000000000000000     
   8.1599999999999966          0.0000000000000000     
   8.2199999999999989          0.0000000000000000     
   8.2800000000000011          0.0000000000000000     
   8.3399999999999963          0.0000000000000000     
   8.3999999999999986          0.0000000000000000     
   8.4600000000000009          0.0000000000000000     
   8.5199999999999960          0.0000000000000000     
   8.5799999999999983          0.0000000000000000     
   8.6400000000000006          0.0000000000000000     