  -24.000000000000000          0.0000000000000000     
  -23.940000000000001          0.0000000000000000     
  -23.879999999999999          0.0000000000000000     
  -23.820000000000000          0.0000000000000000     
  -23.760000000000002          0.0000000000000000     
  -23.699999999999999          0.0000000000000000     
  -23.640000000000001          0.0000000000000000     
  -23.579999999999998          0.0000000000000000     
  -23.520000000000000          0.0000000000000000     
  -23.460000000000001          0.0000000000000000     
  -23.399999999999999          0.0000000000000000     
  -23.340000000000000          0.0000000000000000     
  -23.280000000000001          0.0000000000000000     
  -23.219999999999999          0.0000000000000000     
  -23.160000000000000          0.0000000000000000     
  -23.100000000000001          0.0000000000000000     
  -23.039999999999999          0.0000000000000000     
  -22.980000000000000          0.0000000000000000     
  -22.920000000000002          0.0000000000000000     
  -22.859999999999999          0.0000000000000000     
  -22.800000000000001          0.0000000000000000     
  -22.739999999999998          0.0000000000000000     
  -22.680000000000000          0.0000000000000000     
  -22.620000000000001          0.0000000000000000     
  -22.559999999999999          0.0000000000000000     
  -22.500000000000000          0.0000000000000000     
  -22.440000000000001          0.0000000000000000     
  -22.379999999999999          0.0000000000000000     
  -22.320000000000000          0.0000000000000000     
  -22.260000000000002          0.0000000000000000     
  -22.199999999999999          0.0000000000000000     
  -22.140000000000001          0.0000000000000000     
  -22.079999999999998          0.0000000000000000     
  -22.020000000000000          0.0000000000000000     
  -21.960000000000001          0.0000000000000000     
  -21.899999999999999          0.0000000000000000     
  -21.840000000000000          0.0000000000000000     
  -21.780000000000001          0.0000000000000000     
  -21.719999999999999          0.0000000000000000     
  -21.660000000000000          0.0000000000000000     
  -21.600000000000001          0.0000000000000000     
  -21.539999999999999          0.0000000000000000     
  -21.480000000000000          0.0000000000000000     
  -21.420000000000002          0.0000000000000000     
  -21.359999999999999          0.0000000000000000     
  -21.300000000000001          0.0000000000000000     
  -21.240000000000002          0.0000000000000000     
  -21.180000000000000          0.0000000000000000     
  -21.120000000000001          0.0000000000000000     
  -21.059999999999999          0.0000000000000000     
  -21.000000000000000          0.0000000000000000     
  -20.940000000000001          0.0000000000000000     
  -20.879999999999999          0.0000000000000000     
  -20.820000000000000          0.0000000000000000     
  -20.760000000000002          0.0000000000000000     
  -20.699999999999999          0.0000000000000000     
  -20.640000000000001          0.0000000000000000     
  -20.579999999999998          0.0000000000000000     
  -20.520000000000000          0.0000000000000000     
  -20.460000000000001          0.0000000000000000     
  -20.399999999999999          0.0000000000000000     
  -20.340000000000000          0.0000000000000000     
  -20.280000000000001          0.0000000000000000     
  -20.219999999999999          0.0000000000000000     
  -20.160000000000000          0.0000000000000000     
  -20.100000000000001          0.0000000000000000     
  -20.039999999999999          0.0000000000000000     
  -19.980000000000000          0.0000000000000000     
  -19.920000000000002          0.0000000000000000     
  -19.859999999999999          0.0000000000000000     
  -19.800000000000001          0.0000000000000000     
  -19.740000000000002          0.0000000000000000     
  -19.680000000000000          0.0000000000000000     
  -19.620000000000001          0.0000000000000000     
  -19.560000000000002          0.0000000000000000     
  -19.500000000000000          0.0000000000000000     
  -19.440000000000001          0.0000000000000000     
  -19.379999999999999          0.0000000000000000     
  -19.320000000000000          0.0000000000000000     
  -19.259999999999998          0.0000000000000000     
  -19.199999999999999          0.0000000000000000     
  -19.140000000000001          0.0000000000000000     
  -19.079999999999998          0.0000000000000000     
  -19.020000000000000          0.0000000000000000     
  -18.960000000000001          0.0000000000000000     
  -18.899999999999999          0.0000000000000000     
  -18.840000000000000          0.0000000000000000     
  -18.780000000000001          0.0000000000000000     
  -18.719999999999999          0.0000000000000000     
  -18.660000000000000          0.0000000000000000     
  -18.600000000000001          0.0000000000000000     
  -18.539999999999999          0.0000000000000000     
  -18.480000000000000          0.0000000000000000     
  -18.420000000000002          0.0000000000000000     
  -18.359999999999999          0.0000000000000000     
  -18.300000000000001         -1.0647970144331279E-040
  -18.240000000000002         -4.4957458303971728E-040
  -18.180000000000000         -1.0256526840273576E-039
  -18.120000000000001         -1.7834522037476942E-039
  -18.060000000000002         -2.5970169015320619E-039
  -18.000000000000000         -3.5277816906341647E-039
  -17.940000000000001         -4.5845388652698349E-039
  -17.879999999999999         -5.7695570341177429E-039
  -17.820000000000000         -7.0756217714687365E-039
  -17.759999999999998         -8.4824082423636582E-039
  -17.699999999999999         -9.9520282062804370E-039
  -17.640000000000001         -1.1424204916933960E-038
  -17.579999999999998         -1.3238183886908547E-038
  -17.520000000000000         -1.4003685069638066E-038
  -17.460000000000001         -1.3016891095196395E-038
  -17.399999999999999         -1.1381724915500574E-038
  -17.340000000000000         -8.9747740435517112E-039
  -17.280000000000001         -5.6574145748850896E-039
  -17.219999999999999         -1.2785862327052713E-039
  -17.160000000000000          4.3368376028191381E-039
  -17.100000000000001          1.1290103541404813E-038
  -17.039999999999999          1.9703890842093834E-038
  -16.980000000000000          2.9460531549178056E-038
  -16.920000000000002          4.2502600152608517E-038
  -16.859999999999999          5.8178852937795593E-038
  -16.800000000000001          7.2863164620975279E-038
  -16.740000000000002          8.6466773327774629E-038
  -16.680000000000000          9.5817028248051274E-038
  -16.620000000000001          9.7748132124793539E-038
  -16.560000000000002          9.1577964981702446E-038
  -16.500000000000000          7.4837081488230334E-038
  -16.440000000000001          4.7007226050868965E-038
  -16.379999999999999          5.5214806034760920E-039
  -16.320000000000000         -5.2283356365676178E-038
  -16.260000000000002         -1.2772313700787682E-037
  -16.199999999999999         -2.2120145909485782E-037
  -16.140000000000001         -3.3314606032202819E-037
  -16.079999999999998         -4.5826040955581860E-037
  -16.020000000000000         -5.9524247295732963E-037
  -15.960000000000001         -7.3865864715206324E-037
  -15.900000000000000         -8.8532939326678745E-037
  -15.840000000000000         -1.0122098925140871E-036
  -15.780000000000001         -1.1053262565585304E-036
  -15.720000000000001         -1.1476649428593305E-036
  -15.660000000000000         -1.1346615380035894E-036
  -15.600000000000000         -1.0478881794540152E-036
  -15.540000000000001         -8.4931536623292148E-037
  -15.480000000000000         -4.9452286372006311E-037
  -15.420000000000000          4.7406657284840051E-038
  -15.359999999999999          8.0289312092401831E-037
  -15.300000000000001          1.7972222944530164E-036
  -15.240000000000000          3.0461022966052316E-036
  -15.180000000000000          4.5451913277180338E-036
  -15.120000000000001          6.3123255541646666E-036
  -15.060000000000000          8.3367805284838541E-036
  -15.000000000000000          1.0584647308200219E-035
  -14.940000000000000          1.2990699764122681E-035
  -14.880000000000001          1.5452001849557470E-035
  -14.820000000000000          1.7831141041681043E-035
  -14.760000000000000          1.9913542852211284E-035
  -14.700000000000001          2.1445371603908065E-035
  -14.640000000000001          2.2185007045959280E-035
  -14.580000000000000          2.1752756688426104E-035
  -14.520000000000000          1.9758411607471046E-035
  -14.460000000000001          1.5770382204710749E-035
  -14.400000000000000          9.3565911049813545E-036
  -14.340000000000000          8.7380765049515439E-038
  -14.280000000000001         -1.2422398720269783E-035
  -14.220000000000001         -2.8467410227525076E-035
  -14.160000000000000         -4.8233068158746050E-035
  -14.100000000000000         -7.1715085012852363E-035
  -14.040000000000001         -9.8658310655444092E-035
  -13.980000000000000         -1.2852795668114327E-034
  -13.920000000000000         -1.6035350466056972E-034
  -13.860000000000001         -1.9279630106432949E-034
  -13.800000000000001         -2.2397291652524285E-034
  -13.740000000000000         -2.5147649346159256E-034
  -13.680000000000000         -2.7233663268055718E-034
  -13.620000000000001         -2.8302791738939794E-034
  -13.560000000000000         -2.7946912194647484E-034
  -13.500000000000000         -2.5717688552415891E-034
  -13.440000000000001         -2.1134470239367262E-034
  -13.380000000000001         -1.3708454566477353E-034
  -13.320000000000000         -2.9661842153647506E-035
  -13.260000000000000          1.1513045164561416E-034
  -13.200000000000001          3.0055694899191658E-034
  -13.140000000000001          5.2845149024826348E-034
  -13.080000000000000          7.9873276533011471E-034
  -13.020000000000000          1.1087795264692612E-033
  -12.960000000000001          1.4526898702175827E-033
  -12.900000000000000          1.8206727940642772E-033
  -12.840000000000000          2.1985445616503782E-033
  -12.780000000000001          2.5671129565092453E-033
  -12.720000000000001          2.9018114727728164E-033
  -12.660000000000000          3.1725074523817567E-033
  -12.600000000000000          3.3435590387853247E-033
  -12.540000000000001          3.3742816986760983E-033
  -12.480000000000000          3.2197121392087164E-033
  -12.420000000000000          2.8319314430579085E-033
  -12.360000000000001          2.1619463790594592E-033
  -12.300000000000001          1.1621598792301468E-033
  -12.240000000000000         -2.1052089003419298E-034
  -12.180000000000000         -1.9909408589896029E-033
  -12.120000000000001         -4.2013208174275146E-033
  -12.060000000000000         -6.8463488444722031E-033
  -12.000000000000000         -9.9078409833656495E-033
  -11.940000000000001         -1.3339140013880006E-032
  -11.880000000000001         -1.7059524592140012E-032
  -11.820000000000000         -2.0948907481295014E-032
  -11.760000000000000         -2.4843183653675723E-032
  -11.700000000000001         -2.8530705117391932E-032
  -11.640000000000001         -3.1750348316907798E-032
  -11.580000000000000         -3.4191713645042836E-032
  -11.520000000000000         -3.5498065374981857E-032
  -11.460000000000001         -3.5272563454749049E-032
  -11.400000000000000         -3.3088322978458530E-032
  -11.340000000000000         -2.8502913685810528E-032
  -11.280000000000001         -2.1077562523548794E-032
  -11.220000000000001         -1.0401433609041399E-032
  -11.160000000000000          3.8790168633510070E-033
  -11.100000000000000          2.2025759817711736E-032
  -11.040000000000001          4.4170468292024537E-032
  -10.980000000000000          7.0272263063806043E-032
  -10.920000000000000          1.0007311145334096E-031
  -10.860000000000001          1.3305259467791371E-031
  -10.800000000000001          1.6838425394189578E-031
  -10.740000000000000          2.0489613720441537E-031
  -10.680000000000000          2.4103861025780168E-031
  -10.620000000000001          2.7486315471921272E-031
  -10.560000000000000          3.0401565716611644E-031
  -10.500000000000000          3.2574877877700992E-031
  -10.440000000000001          3.3695726683468474E-031
  -10.380000000000001          3.3424039429208795E-031
  -10.320000000000000          3.1399539915970449E-031
  -10.260000000000000          2.7254501496274054E-031
  -10.200000000000001          2.0630139596213071E-031
  -10.140000000000001          1.1196737953146500E-031
  -10.080000000000000         -1.3225395074881054E-032
  -10.020000000000001         -1.7124404435307756E-031
  -9.9600000000000009         -3.6295239111862069E-031
  -9.9000000000000004         -5.8778717869393993E-031
  -9.8399999999999999         -8.4342218547610587E-031
  -9.7800000000000011         -1.1254345158709529E-030
  -9.7200000000000006         -1.4269889214728655E-030
  -9.6600000000000001         -1.7385606261363174E-030
  -9.6000000000000014         -2.0477180856131552E-030
  -9.5400000000000009         -2.3389928415585971E-030
  -9.4800000000000004         -2.5938612863162822E-030
  -9.4199999999999999         -2.7908690060458002E-030
  -9.3600000000000012         -2.9059230362835570E-030
  -9.3000000000000007         -2.9127824084005108E-030
  -9.2400000000000002         -2.7837672246293806E-030
  -9.1799999999999997         -2.4907088394438857E-030
  -9.1200000000000010         -2.0061518720868706E-030
  -9.0600000000000005         -1.3048117489841247E-030
  -9.0000000000000000         -3.6528163054924549E-031
  -8.9400000000000013          8.2803356123401006E-031
  -8.8800000000000008          2.2827887702820645E-030
  -8.8200000000000003          3.9964353814056299E-030
  -8.7599999999999998          5.9538853273485075E-030
  -8.7000000000000011          8.1252027019231283E-030
  -8.6400000000000006          1.0463429967480668E-029
  -8.5800000000000001          1.2902677318191018E-029
  -8.5200000000000014          1.5356629053783957E-029
  -8.4600000000000009          1.7717622097712591E-029
  -8.4000000000000004          1.9856479577609556E-029
  -8.3399999999999999          2.1623271131123296E-029
  -8.2800000000000011          2.2849180061872873E-029
  -8.2200000000000006          2.3349650308354993E-029
  -8.1600000000000001          2.2928951420854092E-029
  -8.1000000000000014          2.1386298805793569E-029
  -8.0400000000000009          1.8523585327189635E-029
  -7.9800000000000004          1.4154756744905773E-029
  -7.9200000000000017          8.1167963406426636E-030
  -7.8599999999999994          2.8216912607469672E-031
  -7.8000000000000007         -9.4274613493712586E-030
  -7.7400000000000020         -2.1026601224712930E-029
  -7.6799999999999997         -3.4450761161577939E-029
  -7.6200000000000010         -4.9541362200316334E-029
  -7.5600000000000023         -6.6031304759115488E-029
  -7.5000000000000000         -8.3532062942416744E-029
  -7.4400000000000013         -1.0152311954970331E-028
  -7.3799999999999990         -1.1934468493516404E-028
  -7.3200000000000003         -1.3619486984899323E-028
  -7.2600000000000016         -1.5113225508282247E-028
  -7.1999999999999993         -1.6308488996575954E-028
  -7.1400000000000006         -1.7086693113784782E-028
  -7.0800000000000018         -1.7320363078028439E-028
  -7.0199999999999996         -1.6876557441272325E-028
  -6.9600000000000009         -1.5621258821663328E-028
  -6.9000000000000021         -1.3424762426448294E-028
  -6.8399999999999999         -1.0168048295337752E-028
  -6.7800000000000011         -5.7500703930451445E-029
  -6.7199999999999989         -9.5865021563365149E-031
  -6.6600000000000001          6.8346753530316428E-029
  -6.6000000000000014          1.5037632563568089E-028
  -6.5399999999999991          2.4455732991404596E-028
  -6.4800000000000004          3.4969238972790277E-028
  -6.4200000000000017          4.6387482303562569E-028
  -6.3599999999999994          5.8441522668287059E-028
  -6.3000000000000007          7.0778439704291245E-028
  -6.2400000000000020          8.2957854544597064E-028
  -6.1799999999999997          9.4451283270415346E-028
  -6.1200000000000010          1.0464490606944550E-027
  -6.0600000000000023          1.1284636559239835E-027
  -6.0000000000000000          1.1829612436146272E-027
  -5.9400000000000013          1.2018391446894213E-027
  -5.8799999999999990          1.1767055154451457E-027
  -5.8200000000000003          1.0991541103795170E-027
  -5.7600000000000016          9.6109629901823068E-028
  -5.6999999999999993          7.5514817926446903E-028
  -5.6400000000000006          4.7506870503745601E-028
  -5.5800000000000018          1.1624176235842087E-028
  -5.5199999999999996         -3.2380746914911145E-028
  -5.4600000000000009         -8.4487642067953791E-028
  -5.4000000000000021         -1.4435450544057776E-027
  -5.3399999999999999         -2.1126536537008884E-027
  -5.2800000000000011         -2.8408206447485192E-027
  -5.2200000000000024         -3.6120291677315755E-027
  -5.1600000000000001         -4.4053100134285351E-027
  -5.1000000000000014         -5.1945525219716853E-027
  -5.0399999999999991         -5.9484777479586350E-027
  -4.9800000000000004         -6.6308055607945277E-027
  -4.9200000000000017         -7.2006431821855084E-027
  -4.8599999999999994         -7.6131329640150393E-027
  -4.8000000000000007         -7.8203729759030239E-027
  -4.7400000000000020         -7.7726377653233682E-027
  -4.6799999999999997         -7.4199077123001705E-027
  -4.6200000000000010         -6.7137035262616527E-027
  -4.5600000000000023         -5.6092263520016744E-027
  -4.5000000000000000         -4.0677681362174209E-027
  -4.4400000000000013         -2.0593621148727960E-027
  -4.3799999999999990          4.3438167798068230E-028
  -4.3200000000000003          3.4173300892639445E-027
  -4.2600000000000016          6.8758537858447150E-027
  -4.1999999999999993          1.0775942211414362E-026
  -4.1400000000000006          1.5060519028868202E-026
  -4.0800000000000018          1.9647100616304875E-026
  -4.0199999999999996          2.4425950216514127E-026
  -3.9600000000000009          2.9258886026789266E-026
  -3.9000000000000021          3.3978909574027542E-026
  -3.8399999999999999          3.8390830222967726E-026
  -3.7800000000000011          4.2273024535335335E-026
  -3.7200000000000024          4.5380492346886691E-026
  -3.6600000000000001          4.7449358855205178E-026
  -3.6000000000000014          4.8202870287537460E-026
  -3.5399999999999991          4.7359002995210913E-026
  -3.4800000000000004          4.4639655944735305E-026
  -3.4200000000000017          3.9781416003462095E-026
  -3.3599999999999994          3.2547794595968168E-026
  -3.3000000000000007          2.2742734353907847E-026
  -3.2400000000000020          1.0225165203421332E-026
  -3.1799999999999997         -5.0757363014632975E-027
  -3.1200000000000010         -2.3144977869035667E-026
  -3.0600000000000023         -4.3866417597007264E-026
  -3.0000000000000000         -6.7008218980334374E-026
  -2.9400000000000013         -9.2209739062353717E-026
  -2.8800000000000026         -1.1897059623122849E-025
  -2.8200000000000003         -1.4664266393781370E-025
  -2.7600000000000016         -1.7442587633731835E-025
  -2.6999999999999993         -2.0136849233087395E-025
  -2.6400000000000006         -2.2637283815625707E-025
  -2.5800000000000018         -2.4820702033559516E-025
  -2.5199999999999996         -2.6552355281668703E-025
  -2.4600000000000009         -2.7688522296403779E-025
  -2.4000000000000021         -2.8079867605661429E-025
  -2.3399999999999999         -2.7575591491845299E-025
  -2.2800000000000011         -2.6028359472265449E-025
  -2.2200000000000024         -2.3299986814795573E-025
  -2.1600000000000001         -1.9267813740235221E-025
  -2.1000000000000014         -1.3831658982188108E-025
  -2.0399999999999991         -6.9212248872154805E-026
  -1.9800000000000004          1.4962161693587816E-026
  -1.9200000000000017          1.1408074974435756E-025
  -1.8599999999999994          2.2748883739995681E-025
  -1.8000000000000007          3.5393234415076716E-025
  -1.7400000000000020          4.9149472578677913E-025
  -1.6799999999999997          6.3754600532564178E-025
  -1.6200000000000010          7.8870617434324075E-025
  -1.5600000000000023          9.4082832963664433E-025
  -1.5000000000000000          1.0890038289516584E-024
  -1.4400000000000013          1.2275941833813203E-024
  -1.3800000000000026          1.3502924777399612E-024
  -1.3200000000000003          1.4502174681791491E-024
  -1.2600000000000016          1.5200427554888891E-024
  -1.1999999999999993          1.5521625081811613E-024
  -1.1400000000000006          1.5388944358822609E-024
  -1.0800000000000018          1.4727191134871791E-024
  -1.0199999999999996          1.3465551604678787E-024
 -0.96000000000000085          1.1540644523371258E-024
 -0.90000000000000213          8.8998605210075645E-025
 -0.83999999999999986          5.5048947757600431E-025
 -0.78000000000000114          1.3354057645274321E-025
 -0.72000000000000242         -3.6073038257835264E-025
 -0.66000000000000014         -9.2966909590418938E-025
 -0.60000000000000142         -1.5677601263771450E-024
 -0.53999999999999915         -2.2663275174610306E-024
 -0.48000000000000043         -3.0132858148062018E-024
 -0.42000000000000171         -3.7929614539548316E-024
 -0.35999999999999943         -4.5859990381506989E-024
 -0.30000000000000071         -5.3693691507268200E-024
 -0.24000000000000199         -6.1164967882812853E-024
 -0.17999999999999972         -6.7975222779655346E-024
 -0.12000000000000099         -7.3797067764691917E-024
  -6.0000000000002274E-002    -7.8279983182667046E-024
   0.0000000000000000         -8.1057590834432269E-024
   5.9999999999998721E-002    -8.1756628477911492E-024
  0.11999999999999744         -8.0007543321938187E-024
  0.17999999999999972         -7.5456690057534194E-024
  0.23999999999999844         -6.7779977579604409E-024
  0.30000000000000071         -5.6697793729626364E-024
  0.35999999999999943         -4.1990828522102813E-024
  0.41999999999999815         -2.3516666517471617E-024
  0.48000000000000043         -1.2264848376105476E-025
  0.53999999999999915          2.4818427049271416E-024
  0.59999999999999787          5.4430931196817401E-024
  0.66000000000000014          8.7283836434272377E-024
  0.71999999999999886          1.2289759801678097E-023
  0.77999999999999758          1.6063092807526171E-023
  0.83999999999999986          1.9967478081567452E-023
  0.89999999999999858          2.3905065222470585E-023
  0.96000000000000085          2.7761360325075515E-023
   1.0199999999999996          3.1406102266515381E-023
   1.0799999999999983          3.4694736652655138E-023
   1.1400000000000006          3.7470559691028069E-023
   1.1999999999999993          3.9567553639302625E-023
   1.2599999999999980          4.0813943468778789E-023
   1.3200000000000003          4.1036465097946747E-023
   1.3799999999999990          4.0065339143445917E-023
   1.4399999999999977          3.7739892408681746E-023
   1.5000000000000000          3.3914758721807319E-023
   1.5599999999999987          2.8466569281470452E-023
   1.6199999999999974          2.1300998710090851E-023
   1.6799999999999997          1.2360018843953698E-023
   1.7399999999999984          1.6291581067996560E-024
   1.8000000000000007         -1.0855442182751773E-023
   1.8599999999999994         -2.5000373169415904E-023
   1.9199999999999982         -4.0649038855543354E-023
   1.9800000000000004         -5.7576682037520472E-023
   2.0399999999999991         -7.5486670632500015E-023
   2.0999999999999979         -9.4008355527349065E-023
   2.1600000000000001         -1.1269672991151373E-022
   2.2199999999999989         -1.3103426128726427E-022
   2.2799999999999976         -1.4843503499982629E-022
   2.3399999999999999         -1.6425156770230431E-022
   2.3999999999999986         -1.7778433504609653E-022
   2.4599999999999973         -1.8829422292526592E-022
   2.5199999999999996         -1.9501791691133974E-022
   2.5799999999999983         -1.9718629693110673E-022
   2.6400000000000006         -1.9404559029105651E-022
   2.6999999999999993         -1.8488122892956165E-022
   2.7599999999999980         -1.6904391442472798E-022
   2.8200000000000003         -1.4597775393701418E-022
   2.8799999999999990         -1.1524966972878505E-022
   2.9399999999999977         -7.6579597656691287E-023
   3.0000000000000000         -2.9870651975936595E-023
   3.0599999999999987          2.4761513198776977E-023
   3.1199999999999974          8.6961248305523377E-023
   3.1799999999999997          1.5610822852405932E-022
   3.2399999999999984          2.3129661623967216E-022
   3.3000000000000007          3.1131949854733683E-022
   3.3599999999999994          3.9465921800366100E-022
   3.4199999999999982          4.7948539452718742E-022
   3.4800000000000004          5.6366098902852679E-022
   3.5399999999999991          6.4475804380715396E-022
   3.5999999999999979          7.2008344978059817E-022
   3.6600000000000001          7.8671578586363389E-022
   3.7199999999999989          8.4155354386846941E-022
   3.7799999999999976          8.8137496761440786E-022
   3.8399999999999999          9.0290963123890826E-022
   3.8999999999999986          9.0292111350231842E-022
   3.9599999999999973          8.7830002456643028E-022
   4.0199999999999996          8.2616681287781864E-022
   4.0799999999999983          7.4398188569355200E-022
   4.1400000000000006          6.2966231466831189E-022
   4.1999999999999993          4.8170100997135877E-022
   4.2599999999999980          2.9928774744817906E-022
   4.3200000000000003          8.2427021700245335E-023
   4.3799999999999990         -1.6794972106822190E-022
   4.4399999999999977         -4.4988147305413406E-022
   4.5000000000000000         -7.6028891686375776E-022
   4.5599999999999987         -1.0949039415773755E-021
   4.6199999999999974         -1.4482206374519193E-021
   4.6799999999999997         -1.8134739298669116E-021
   4.7399999999999984         -2.1826471182702969E-021
   4.7999999999999972         -2.5465155773551237E-021
   4.8599999999999994         -2.8947264199642611E-021
   4.9199999999999982         -3.2159202309609430E-021
   4.9800000000000004         -3.4978934685211801E-021
   5.0399999999999991         -3.7278069038466280E-021
   5.0999999999999979         -3.8924358574710807E-021
   5.1600000000000001         -3.9784657364536150E-021
   5.2199999999999989         -3.9728257589422739E-021
   5.2799999999999976         -3.8630639721095896E-021
   5.3399999999999999         -3.6377513950066009E-021
   5.3999999999999986         -3.2869143411549414E-021
   5.4599999999999973         -2.8024848784820614E-021
   5.5199999999999996         -2.1787603710625410E-021
   5.5799999999999983         -1.4128616127255042E-021
   5.6400000000000006         -5.0517642175831695E-022
   5.6999999999999993          5.4022040848033631E-022
   5.7599999999999980          1.7151924904638697E-021
   5.8200000000000003          3.0072184211760102E-021
   5.8799999999999990          4.3991411017426460E-021
   5.9399999999999977          5.8690031168093043E-021
   6.0000000000000000          7.3899820755089256E-021
   6.0599999999999987          8.9304405055445687E-021
   6.1199999999999974          1.0454106596934587E-020
   6.1799999999999997          1.1920390855064456E-020
   6.2399999999999984          1.3284855234898107E-020
   6.2999999999999972          1.4499831441422246E-020
   6.3599999999999994          1.5515206339664175E-020
   6.4199999999999982          1.6279358804209083E-020
   6.4800000000000004          1.6740259383757960E-020
   6.5399999999999991          1.6846705298770152E-020
   6.5999999999999979          1.6549697636621943E-020
   6.6600000000000001          1.5803935750909670E-020
   6.7199999999999989          1.4569398214800061E-020
   6.7799999999999976          1.2812988591047347E-020
   6.8399999999999999          1.0510220466713146E-020
   6.8999999999999986          7.6468908865953308E-021
   6.9599999999999973          4.2207119332224854E-021
   7.0199999999999996          2.4284538437920487E-022
   7.0799999999999983         -4.2607051243826872E-021
   7.1400000000000006         -9.2478805707902862E-021
   7.1999999999999993         -1.4659610611702784E-020
   7.2599999999999980         -2.0419152743713571E-020
   7.3200000000000003         -2.6431765030341860E-020
   7.3799999999999990         -3.2584787551166780E-020
   7.4399999999999977         -3.8748162756533367E-020
   7.5000000000000000         -4.4775429910293918E-020
   7.5599999999999987         -5.0505231670926872E-020
   7.6199999999999974         -5.5763358443876403E-020
   7.6799999999999997         -6.0365345519096319E-020
   7.7399999999999984         -6.4119611605474568E-020
   7.7999999999999972         -6.6831157062898300E-020
   7.8599999999999994         -6.8305747895015063E-020
   7.9199999999999982         -6.8354603248897305E-020
   7.9800000000000004         -6.6799489000482104E-020
   8.0399999999999991         -6.3478172644131347E-020
   8.1000000000000014         -5.8250128500087708E-020
   8.1599999999999966         -5.1002391928913911E-020
   8.2199999999999989         -4.1655484580827906E-020
   8.2800000000000011         -3.0169201324716537E-020
   8.3399999999999963         -1.6548210431368285E-020
   8.3999999999999986         -8.4719050482891065E-022
   8.4600000000000009          1.6824541819987707E-020
   8.5199999999999960          3.6299140800210874E-020
   8.5799999999999983          5.7347294762855835E-020
   8.6400000000000006          7.9676260558168607E-020