  -24.000000000000000          0.0000000000000000     
  -23.940000000000001          0.0000000000000000     
  -23.879999999999999          0.0000000000000000     
  -23.820000000000000          0.0000000000000000     
  -23.760000000000002          0.0000000000000000     
  -23.699999999999999          0.0000000000000000     
  -23.640000000000001          0.0000000000000000     
  -23.579999999999998          0.0000000000000000     
  -23.520000000000000          0.0000000000000000     
  -23.460000000000001          0.0000000000000000     
  -23.399999999999999          0.0000000000000000     
  -23.340000000000000          0.0000000000000000     
  -23.280000000000001          0.0000000000000000     
  -23.219999999999999          0.0000000000000000     
  -23.160000000000000          8.8290608081223483E-040
  -23.100000000000001          5.1179261910163998E-039
  -23.039999999999999          1.3933074153261075E-038
  -22.980000000000000          3.8586305108212361E-038
  -22.920000000000002          1.1278454845361038E-037
  -22.859999999999999          3.1441852113336111E-037
  -22.800000000000001          8.9765198897995436E-037
  -22.739999999999998          2.4300754718205143E-036
  -22.680000000000000          6.1610603061012562E-036
  -22.620000000000001          1.4810075694586846E-035
  -22.559999999999999          3.3993745331811236E-035
  -22.500000000000000          7.4803825766413366E-035
  -22.440000000000001          1.5831352360601677E-034
  -22.379999999999999          3.2313478402809733E-034
  -22.320000000000000          6.3784275247392776E-034
  -22.260000000000002          1.2202655916424242E-033
  -22.199999999999999          2.2669717240469132E-033
  -22.140000000000001          4.0968523138559328E-033
  -22.079999999999998          7.2132613101665426E-033
  -22.020000000000000          1.2389940313427651E-032
  -21.960000000000001          2.0785921558458665E-032
  -21.899999999999999          3.4093588175380905E-032
  -21.840000000000000          5.4721839606836387E-032
  -21.780000000000001          8.6011856046351347E-032
  -21.719999999999999          1.3247596366124473E-031
  -21.660000000000000          2.0003942186116542E-031
  -21.600000000000001          2.9625049511092963E-031
  -21.539999999999999          4.3040518514549021E-031
  -21.480000000000000          6.1350868993364466E-031
  -21.420000000000002          8.5796799256206961E-031
  -21.359999999999999          1.1768797498762794E-030
  -21.300000000000001          1.5827473395177863E-030
  -21.240000000000002          2.0854319958500456E-030
  -21.180000000000000          2.6891259409403816E-030
  -21.120000000000001          3.3881380107270060E-030
  -21.059999999999999          4.1612946941501706E-030
  -21.000000000000000          4.9648381734859000E-030
  -20.940000000000001          5.7237892054960412E-030
  -20.879999999999999          6.3219292395551953E-030
  -20.820000000000000          6.5907744265466373E-030
  -20.760000000000002          6.2982481530069803E-030
  -20.699999999999999          5.1381409960938445E-030
  -20.640000000000001          2.7219324011685877E-030
  -20.579999999999998         -1.4249282839645845E-030
  -20.520000000000000         -7.8595758279876334E-030
  -20.460000000000001         -1.7207868746336343E-029
  -20.399999999999999         -3.0136341775246283E-029
  -20.340000000000000         -4.7305807027963815E-029
  -20.280000000000001         -6.9302343392986695E-029
  -20.219999999999999         -9.6541595150700322E-029
  -20.160000000000000         -1.2914303318788584E-028
  -20.100000000000001         -1.6677211306386724E-028
  -20.039999999999999         -2.0845043950923013E-028
  -19.980000000000000         -2.5233691549335948E-028
  -19.920000000000002         -2.9548670635740833E-028
  -19.859999999999999         -3.3360005794371599E-028
  -19.800000000000001         -3.6077868893509060E-028
  -19.740000000000002         -3.6931423383233255E-028
  -19.680000000000000         -3.4954069595308604E-028
  -19.620000000000001         -2.8979047617963894E-028
  -19.560000000000002         -1.7650031922160993E-028
  -19.500000000000000          5.4796372302750068E-030
  -19.440000000000001          2.7231646781962885E-028
  -19.379999999999999          6.4030724061625935E-028
  -19.320000000000000          1.1246176974651973E-027
  -19.259999999999998          1.7376009442954022E-027
  -19.199999999999999          2.4866638428002037E-027
  -19.140000000000001          3.3716745455426100E-027
  -19.079999999999998          4.3819319255036520E-027
  -19.020000000000000          5.4927659900808043E-027
  -18.960000000000001          6.6618862234174706E-027
  -18.899999999999999          7.8256556572873278E-027
  -18.840000000000000          8.8955398868194817E-027
  -18.780000000000001          9.7550512755635789E-027
  -18.719999999999999          1.0257597475060107E-026
  -18.660000000000000          1.0225699993988332E-026
  -18.600000000000001          9.4521288102865816E-027
  -18.539999999999999          7.7035538881428977E-027
  -18.480000000000000          4.7273158297014154E-027
  -18.420000000000002          2.6194777439855328E-028
  -18.359999999999999         -5.9480131380649533E-027
  -18.300000000000001         -1.4132445853397535E-026
  -18.240000000000002         -2.4471042085076927E-026
  -18.180000000000000         -3.7063618697189903E-026
  -18.120000000000001         -5.1895634496767578E-026
  -18.060000000000002         -6.8799600426378867E-026
  -18.000000000000000         -8.7413546218599565E-026
  -17.940000000000001         -1.0713827437811591E-025
  -17.879999999999999         -1.2709577190110782E-025
  -17.820000000000000         -1.4609170882639923E-025
  -17.759999999999998         -1.6258582068883232E-025
  -17.699999999999999         -1.7467427454430062E-025
  -17.640000000000001         -1.8008911113933335E-025
  -17.579999999999998         -1.7621987005679785E-025
  -17.520000000000000         -1.6016296855939505E-025
  -17.460000000000001         -1.2880427061117666E-025
  -17.399999999999999         -7.8940077768999971E-026
  -17.340000000000000         -7.4405624236404053E-027
  -17.280000000000001          8.8541166850709708E-026
  -17.219999999999999          2.1131295996858262E-025
  -17.160000000000000          3.6234206921849179E-025
  -17.100000000000001          5.4191164061453280E-025
  -17.039999999999999          7.4874374846611199E-025
  -16.980000000000000          9.7960000908048978E-025
  -16.920000000000002          1.2288762817430044E-024
  -16.859999999999999          1.4882130479143011E-024
  -16.800000000000001          1.7461467895829636E-024
  -16.740000000000002          1.9878346597566515E-024
  -16.680000000000000          2.1948860608417184E-024
  -16.620000000000001          2.3453428349163804E-024
  -16.560000000000002          2.4138474373784335E-024
  -16.500000000000000          2.3720433574808664E-024
  -16.440000000000001          2.1892477079366569E-024
  -16.379999999999999          1.8334367837303999E-024
  -16.320000000000000          1.2725731651499811E-024
  -16.260000000000002          4.7629756320415052E-025
  -16.199999999999999         -5.8200653691400378E-025
  -16.140000000000001         -1.9227859878959010E-024
  -16.079999999999998         -3.5575560082178005E-024
  -16.020000000000000         -5.4858614440234230E-024
  -15.960000000000001         -7.6920437577910371E-024
  -15.900000000000000         -1.0141926693485100E-023
  -15.840000000000000         -1.2779569656112116E-023
  -15.780000000000001         -1.5524267063400504E-023
  -15.720000000000001         -1.8268010583763231E-023
  -15.660000000000000         -2.0873649294828130E-023
  -15.600000000000000         -2.3174023382124599E-023
  -15.540000000000001         -2.4972354651780736E-023
  -15.480000000000000         -2.6044179934158360E-023
  -15.420000000000000         -2.6141125690758706E-023
  -15.359999999999999         -2.4996783295615438E-023
  -15.300000000000001         -2.2334932594357841E-023
  -15.240000000000000         -1.7880267630522349E-023
  -15.180000000000000         -1.1371740756458013E-023
  -15.120000000000001         -2.5785210676267214E-024
  -15.060000000000000          8.6815648270005653E-024
  -15.000000000000000          2.2521392879139600E-023
  -14.940000000000000          3.8962090005937013E-023
  -14.880000000000001          5.7909460825125984E-023
  -14.820000000000000          7.9130056982669137E-023
  -14.760000000000000          1.0222791990455901E-022
  -14.700000000000001          1.2662318785691992E-022
  -14.640000000000001          1.5153406032569760E-022
  -14.580000000000000          1.7596357342609320E-022
  -14.520000000000000          1.9869298341592579E-022
  -14.460000000000001          2.1828352645610713E-022
  -14.400000000000000          2.3308832039570375E-022
  -14.340000000000000          2.4127629630388815E-022
  -14.280000000000001          2.4086964855380817E-022
  -14.220000000000001          2.2979633116256616E-022
  -14.160000000000000          2.0595856142804017E-022
  -14.100000000000000          1.6731791867671134E-022
  -14.040000000000001          1.1199699060196585E-022
  -13.980000000000000          3.8396957024276049E-023
  -13.920000000000000         -5.4670593107894695E-023
  -13.860000000000001         -1.6784015489029760E-022
  -13.800000000000001         -3.0104035400237425E-022
  -13.740000000000000         -4.5333868129444031E-022
  -13.680000000000000         -6.2278802073671195E-022
  -13.620000000000001         -8.0628249067193967E-022
  -13.560000000000000         -9.9943008312524629E-022
  -13.500000000000000         -1.1964510202621140E-021
  -13.440000000000001         -1.3901114181695940E-021
  -13.380000000000001         -1.5717027139490548E-021
  -13.320000000000000         -1.7310763171387221E-021
  -13.260000000000000         -1.8567446978612831E-021
  -13.200000000000001         -1.9360576674159538E-021
  -13.140000000000001         -1.9554625429399156E-021
  -13.080000000000000         -1.9008549638663958E-021
  -13.020000000000000         -1.7580246877758939E-021
  -12.960000000000001         -1.5131979141388283E-021
  -12.900000000000000         -1.1536740263082700E-021
  -12.840000000000000         -6.6855106228472164E-022
  -12.780000000000001         -4.9529278118093415E-023
  -12.720000000000001          7.0822396934644892E-022
  -12.660000000000000          1.6051689979286999E-021
  -12.600000000000000          2.6364742990404189E-021
  -12.540000000000001          3.7911177810791184E-021
  -12.480000000000000          5.0510429482652148E-021
  -12.420000000000000          6.3904200955563946E-021
  -12.360000000000001          7.7750531799207188E-021
  -12.300000000000001          9.1619901635807290E-021
  -12.240000000000000          1.0499383133870095E-020
  -12.180000000000000          1.1726658697767795E-020
  -12.120000000000001          1.2775047967430894E-020
  -12.060000000000000          1.3568523820567717E-020
  -12.000000000000000          1.4025189586317040E-020
  -11.940000000000001          1.4059151082099607E-020
  -11.880000000000001          1.3582899809341177E-020
  -11.820000000000000          1.2510203241007968E-020
  -11.760000000000000          1.0759501902854016E-020
  -11.700000000000001          8.2577832863133753E-021
  -11.640000000000001          4.9448683938857294E-021
  -11.580000000000000          7.7805073516248326E-022
  -11.520000000000000         -4.2630378021779461E-021
  -11.460000000000001         -1.0171440161518909E-020
  -11.400000000000000         -1.6907944662674025E-020
  -11.340000000000000         -2.4396397302838405E-020
  -11.280000000000001         -3.2519439921977147E-020
  -11.220000000000001         -4.1114938010412542E-020
  -11.160000000000000         -4.9973324963124647E-020
  -11.100000000000000         -5.8836104722445578E-020
  -11.040000000000001         -6.7395813463157947E-020
  -10.980000000000000         -7.5297666367886501E-020
  -10.920000000000000         -8.2143118423420327E-020
  -10.860000000000001         -8.7495608381372434E-020
  -10.800000000000001         -9.0888569898638735E-020
  -10.740000000000000         -9.1835969305112706E-020
  -10.680000000000000         -8.9845289974576665E-020
  -10.620000000000001         -8.4433076151912279E-020
  -10.560000000000000         -7.5142879853054429E-020
  -10.500000000000000         -6.1565426708771621E-020
  -10.440000000000001         -4.3360737187987448E-020
  -10.380000000000001         -2.0281700242585838E-020
  -10.320000000000000          7.8012790556852365E-021
  -10.260000000000000          4.0875388605483015E-020
  -10.200000000000001          7.8760869180074216E-020
  -10.140000000000001          1.2108788725186993E-019
  -10.080000000000000          1.6727557190657150E-019
  -10.020000000000001          2.1651457691190237E-019
  -9.9600000000000009          2.6775398250215690E-019
  -9.9000000000000004          3.1969386809776505E-019
  -9.8399999999999999          3.7078485262515474E-019
  -9.7800000000000011          4.1923527248558347E-019
  -9.7200000000000006          4.6302760837112292E-019
  -9.6600000000000001          4.9994476472376731E-019
  -9.6000000000000014          5.2760695026459179E-019
  -9.5400000000000009          5.4351985192729731E-019
  -9.4800000000000004          5.4513429154927954E-019
  -9.4199999999999999          5.2991735078343744E-019
  -9.3600000000000012          4.9543438203597401E-019
  -9.3000000000000007          4.3944129951864390E-019
  -9.2400000000000002          3.5998582701378389E-019
  -9.1799999999999997          2.5551594758336119E-019
  -9.1200000000000010          1.2499279962244166E-019
  -9.0600000000000005         -3.1993379590903594E-020
  -9.0000000000000000         -2.1510919588794053E-019
  -8.9400000000000013         -4.2316838850841458E-019
  -8.8800000000000008         -6.5403052963943869E-019
  -8.8200000000000003         -9.0451386521046097E-019
  -8.7599999999999998         -1.1703248195165907E-018
  -8.7000000000000011         -1.4460112181397915E-018
  -8.6400000000000006         -1.7249422507250658E-018
  -8.5800000000000001         -1.9993212821494906E-018
  -8.5200000000000014         -2.2602353070501420E-018
  -8.4600000000000009         -2.4977450361335948E-018
  -8.4000000000000004         -2.7010188466076707E-018
  -8.3399999999999999         -2.8585143648072041E-018
  -8.2800000000000011         -2.9582070593482198E-018
  -8.2200000000000006         -2.9878690467103437E-018
  -8.1600000000000001         -2.9353941945245219E-018
  -8.1000000000000014         -2.7891688783549836E-018
  -8.0400000000000009         -2.5384836381657597E-018
  -7.9800000000000004         -2.1739807105363796E-018
  -7.9200000000000017         -1.6881257500621510E-018
  -7.8599999999999994         -1.0757004950764157E-018
  -7.8000000000000007         -3.3429792014986602E-019
  -7.7400000000000020          5.3518798884449428E-019
  -7.6799999999999997          1.5280969065671760E-018
  -7.6200000000000010          2.6355743192813800E-018
  -7.5600000000000023          3.8442022118411887E-018
  -7.5000000000000000          5.1357035625061274E-018
  -7.4400000000000013          6.4867416426214403E-018
  -7.3799999999999990          7.8688309475085833E-018
  -7.3200000000000003          9.2483806110142955E-018
  -7.2600000000000016          1.0586882370779124E-017
  -7.1999999999999993          1.1841265496810841E-017
  -7.1400000000000006          1.2964421652972976E-017
  -7.0800000000000018          1.3905920415766668E-017
  -7.0199999999999996          1.4612909081857893E-017
  -6.9600000000000009          1.5031206002616557E-017
  -6.9000000000000021          1.5106584150799967E-017
  -6.8399999999999999          1.4786225982796804E-017
  -6.7800000000000011          1.4020346446997541E-017
  -6.7199999999999989          1.2763951830581369E-017
  -6.6600000000000001          1.0978710861194618E-017
  -6.6000000000000014          8.6349005176919044E-018
  -6.5399999999999991          5.7133896959271772E-018
  -6.4800000000000004          2.2076018030603014E-018
  -6.4200000000000017         -1.8745815151930479E-018
  -6.3599999999999994         -6.5090565621689500E-018
  -6.3000000000000007         -1.1653911910746647E-017
  -6.2400000000000020         -1.7248107502270251E-017
  -6.1799999999999997         -2.3210466505956732E-017
  -6.1200000000000010         -2.9439074299455331E-017
  -6.0600000000000023         -3.5811115978847669E-017
  -6.0000000000000000         -4.2183248287665833E-017
  -5.9400000000000013         -4.8392530517380251E-017
  -5.8799999999999990         -5.4257989801144754E-017
  -5.8200000000000003         -5.9582833178221592E-017
  -5.7600000000000016         -6.4157378735251402E-017
  -5.6999999999999993         -6.7762622923067804E-017
  -5.6400000000000006         -7.0174564239921381E-017
  -5.5800000000000018         -7.1169158352390077E-017
  -5.5199999999999996         -7.0527906217509782E-017
  -5.4600000000000009         -6.8044019274796714E-017
  -5.4000000000000021         -6.3529035695093923E-017
  -5.3399999999999999         -5.6819842854071844E-017
  -5.2800000000000011         -4.7785913695715219E-017
  -5.2200000000000024         -3.6336647457626610E-017
  -5.1600000000000001         -2.2428644809928783E-017
  -5.1000000000000014         -6.0726891344510438E-018
  -5.0399999999999991          1.2659695496886855E-017
  -4.9800000000000004          3.3630400223491708E-017
  -4.9200000000000017          5.6629724093181631E-017
  -4.8599999999999994          8.1372609078847998E-017
  -4.8000000000000007          1.0749609800531573E-016
  -4.7400000000000020          1.3455837651164624E-016
  -4.6799999999999997          1.6203966731700227E-016
  -4.6200000000000010          1.8934494691439382E-016
  -4.5600000000000023          2.1580885203601145E-016
  -4.5000000000000000          2.4070275886591260E-016
  -4.4400000000000013          2.6324423803551403E-016
  -4.3799999999999990          2.8260874604823738E-016
  -4.3200000000000003          2.9794378130853276E-016
  -4.2600000000000016          3.0838522637895681E-016
  -4.1999999999999993          3.1307589974951364E-016
  -4.1400000000000006          3.1118600316596393E-016
  -4.0800000000000018          3.0193526813349041E-016
  -4.0199999999999996          2.8461661927728227E-016
  -3.9600000000000009          2.5862059109762904E-016
  -3.9000000000000021          2.2346067369303158E-016
  -3.8399999999999999          1.7879817695672224E-016
  -3.7800000000000011          1.2446707842603481E-016
  -3.7200000000000024          6.0497425405599705E-017
  -3.6600000000000001         -1.2862850593787787E-017
  -3.6000000000000014         -9.5128683854402852E-017
  -3.5399999999999991         -1.8556179360729509E-016
  -3.4800000000000004         -2.8315804857934809E-016
  -3.4200000000000017         -3.8663994187242557E-016
  -3.3599999999999994         -4.9445343619210703E-016
  -3.3000000000000007         -6.0477124895161957E-016
  -3.2400000000000020         -7.1550180664945546E-016
  -3.1799999999999997         -8.2430505599197847E-016
  -3.1200000000000010         -9.2861540392522448E-016
  -3.0600000000000023         -1.0256716055391835E-015
  -3.0000000000000000         -1.1125544366380408E-015
  -2.9400000000000013         -1.1862309288288888E-015
  -2.8800000000000026         -1.2436063136403428E-015
  -2.8200000000000003         -1.2815824183707470E-015
  -2.7600000000000016         -1.2971217855722846E-015
  -2.6999999999999993         -1.2873177230289293E-015
  -2.6400000000000006         -1.2494681926872082E-015
  -2.5800000000000018         -1.1811537009251356E-015
  -2.5199999999999996         -1.0803163994154833E-015
  -2.4600000000000009         -9.4534095862814359E-016
  -2.4000000000000021         -7.7513307617756805E-016
  -2.3399999999999999         -5.6919628263911970E-016
  -2.2800000000000011         -3.2770442717686499E-016
  -2.2200000000000024         -5.1567394650193282E-017
  -2.1600000000000001          2.5751164497938965E-016
  -2.1000000000000014          5.9698826831458505E-016
  -2.0399999999999991          9.6344153755276203E-016
  -1.9800000000000004          1.3525526192428982E-015
  -1.9200000000000017          1.7590985087343133E-015
  -1.8599999999999994          2.1769624564272353E-015
  -1.8000000000000007          2.5991644405019216E-015
  -1.7400000000000020          3.0179088635493372E-015
  -1.6799999999999997          3.4246550613298396E-015
  -1.6200000000000010          3.8102063530264766E-015
  -1.5600000000000023          4.1648220584955248E-015
  -1.5000000000000000          4.4783486151090333E-015
  -1.4400000000000013          4.7403722670740389E-015
  -1.3800000000000026          4.9403902169344279E-015
  -1.3200000000000003          5.0679983428869089E-015
  -1.2600000000000016          5.1130967196866613E-015
  -1.1999999999999993          5.0661064008798691E-015
  -1.1400000000000006          4.9181963193067230E-015
  -1.0800000000000018          4.6615202546067442E-015
  -1.0199999999999996          4.2894538386710885E-015
 -0.96000000000000085          3.7968321535659079E-015
 -0.90000000000000213          3.1801832865937275E-015
 -0.83999999999999986          2.4379504360219465E-015
 -0.78000000000000114          1.5707034466138030E-015
 -0.72000000000000242          5.8132746875323530E-016
 -0.66000000000000014         -5.2481221775276123E-016
 -0.60000000000000142         -1.7397292827553788E-015
 -0.53999999999999915         -3.0527160547192866E-015
 -0.48000000000000043         -4.4502770264261453E-015
 -0.42000000000000171         -5.9161032224380719E-015
 -0.35999999999999943         -7.4311005008104634E-015
 -0.30000000000000071         -8.9734589934134681E-015
 -0.24000000000000199         -1.0518780598711826E-014
 -0.17999999999999972         -1.2040258576373890E-014
 -0.12000000000000099         -1.3508914685467643E-014
  -6.0000000000002274E-002    -1.4893893877922964E-014
   0.0000000000000000         -1.6162810906015017E-014
   5.9999999999998721E-002    -1.7282159631858832E-014
  0.11999999999999744         -1.8217770574669699E-014
  0.17999999999999972         -1.8935320042715445E-014
  0.23999999999999844         -1.9400883641282173E-014
  0.30000000000000071         -1.9581533520745576E-014
  0.35999999999999943         -1.9445968610326466E-014
  0.41999999999999815         -1.8965175390113797E-014
  0.48000000000000043         -1.8113098551561361E-014
  0.53999999999999915         -1.6867338273928196E-014
  0.59999999999999787         -1.5209830274911883E-014
  0.66000000000000014         -1.3127526077114600E-014
  0.71999999999999886         -1.0613052921771117E-014
  0.77999999999999758         -7.6653358999297133E-015
  0.83999999999999986         -4.2901777512420657E-015
  0.89999999999999858         -5.0078465947479394E-016
  0.96000000000000085          3.6817877506169821E-015
   1.0199999999999996          8.2282593816671418E-015
   1.0799999999999983          1.3100848884806404E-014
   1.1400000000000006          1.8253099021606690E-014
   1.1999999999999993          2.3629824747351495E-014
   1.2599999999999980          2.9167184461103997E-014
   1.3200000000000003          3.4792881595958023E-014
   1.3799999999999990          4.0426518908466191E-014
   1.4399999999999977          4.5980096049845065E-014
   1.5000000000000000          5.1358661316587252E-014
   1.5599999999999987          5.6461127052053775E-014
   1.6199999999999974          6.1181238060669805E-014
   1.6799999999999997          6.5408701412213242E-014
   1.7399999999999984          6.9030466463677132E-014
   1.8000000000000007          7.1932175574734592E-014
   1.8599999999999994          7.3999725268957613E-014
   1.9199999999999982          7.5120970353099469E-014
   1.9800000000000004          7.5187565022602401E-014
   2.0399999999999991          7.4096867153019752E-014
   2.0999999999999979          7.1753986706661219E-014
   2.1600000000000001          6.8073827857449236E-014
   2.2199999999999989          6.2983238674128834E-014
   2.2799999999999976          5.6423114898984305E-014
   2.3399999999999999          4.8350537719119961E-014
   2.3999999999999986          3.8740832721169845E-014
   2.4599999999999973          2.7589567608464819E-014
   2.5199999999999996          1.4914455152784456E-014
   2.5799999999999983          7.5708290255211603E-016
   2.6400000000000006         -1.4815532192827812E-014
   2.6999999999999993         -3.1709604382685305E-014
   2.7599999999999980         -4.9803470293184630E-014
   2.8200000000000003         -6.8946835112333207E-014
   2.8799999999999990         -8.8960288304320202E-014
   2.9399999999999977         -1.0963520422212892E-013
   3.0000000000000000         -1.3073406429254867E-013
   3.0599999999999987         -1.5199115164280478E-013
   3.1199999999999974         -1.7311376390427319E-013
   3.1799999999999997         -1.9378382065659456E-013
   3.2399999999999984         -2.1366009110687723E-013
   3.3000000000000007         -2.3238082275738137E-013
   3.3599999999999994         -2.4956686879901871E-013
   3.4199999999999982         -2.6482552690422019E-013
   3.4800000000000004         -2.7775462747350686E-013
   3.5399999999999991         -2.8794731326663796E-013
   3.5999999999999979         -2.9499732242680113E-013
   3.6600000000000001         -2.9850448939893421E-013
   3.7199999999999989         -2.9808096459115790E-013
   3.7799999999999976         -2.9335765685398900E-013
   3.8399999999999999         -2.8399088650986409E-013
   3.8999999999999986         -2.6966948486496109E-013
   3.9599999999999973         -2.5012207910221715E-013
   4.0199999999999996         -2.2512416807328042E-013
   4.0799999999999983         -1.9450566161039842E-013
   4.1400000000000006         -1.5815789958088237E-013
   4.1999999999999993         -1.1604075882916365E-013
   4.2599999999999980         -6.8189354234927562E-014
   4.3200000000000003         -1.4720292485315645E-014
   4.3799999999999990          4.4162628397892446E-014
   4.4399999999999977          1.0816335481603377E-013
   4.5000000000000000          1.7688922745131680E-013
   4.5599999999999987          2.4984778341250642E-013
   4.6199999999999974          3.2644434387429848E-013
   4.6799999999999997          4.0598092747594290E-013
   4.7399999999999984          4.8765634600011592E-013
   4.7999999999999972          5.7056772449387751E-013
   4.8599999999999994          6.5371353597703192E-013
   4.9199999999999982          7.3599808424010201E-013
   4.9800000000000004          8.1623777295831498E-013
   5.0399999999999991          8.9316875506069261E-013
   5.0999999999999979          9.6545672264697684E-013
   5.1600000000000001          1.0317079276407041E-012
   5.2199999999999989          1.0904824511834525E-012
   5.2799999999999976          1.1403087460887133E-012
   5.3399999999999999          1.1796998834152984E-012
   5.3999999999999986          1.2071716951314336E-012
   5.4599999999999973          1.2212619729417334E-012
   5.5199999999999996          1.2205510135667395E-012
   5.5799999999999983          1.2036837410151528E-012
   5.6400000000000006          1.1693920117954462E-012
   5.6999999999999993          1.1165186803529477E-012
   5.7599999999999980          1.0440412736670752E-012
   5.8200000000000003          9.5109673836021411E-013
   5.8799999999999990          8.3700537574847329E-013
   5.9399999999999977          7.0129505066941290E-013
   6.0000000000000000          5.4372432834432848E-013
   6.0599999999999987          3.6430519625801822E-013
   6.1199999999999974          1.6332381119466409E-013
   6.1799999999999997         -5.8640116677908636E-014
   6.2399999999999984         -3.0069595909714215E-013
   6.2999999999999972         -5.6162740810181376E-013
   6.3599999999999994         -8.3988024746869737E-013
   6.4199999999999982         -1.1335535019333610E-012
   6.4800000000000004         -1.4403937027086173E-012
   6.5399999999999991         -1.7577931727437925E-012
   6.5999999999999979         -2.0827925309003465E-012
   6.6600000000000001         -2.4120866847940307E-012
   6.7199999999999989         -2.7420371289030879E-012
   6.7799999999999976         -3.0686867627463161E-012
   6.8399999999999999         -3.3877809373967249E-012
   6.8999999999999986         -3.6947941873532742E-012
   6.9599999999999973         -3.9849600660291455E-012
   7.0199999999999996         -4.2533077892450152E-012
   7.0799999999999983         -4.4947035599232381E-012
   7.1400000000000006         -4.7038955678548159E-012
   7.1999999999999993         -4.8755667316684459E-012
   7.2599999999999980         -5.0043881245443862E-012
   7.3200000000000003         -5.0850799506910064E-012
   7.3799999999999990         -5.1124733427410776E-012
   7.4399999999999977         -5.0815796392404288E-012
   7.5000000000000000         -4.9876582522371592E-012
   7.5599999999999987         -4.8262913094971118E-012
   7.6199999999999974         -4.5934562260384553E-012
   7.6799999999999997         -4.2856020726877594E-012
   7.7399999999999984         -3.8997245013608551E-012
   7.7999999999999972         -3.4334438472128591E-012
   7.8599999999999994         -2.8850767149142237E-012
   7.9199999999999982         -2.2537121711016134E-012
   7.9800000000000004         -1.5392781940153721E-012
   8.0399999999999991         -7.4261072824125575E-013
   8.1000000000000014          1.3448565853908571E-013
   8.1599999999999966          1.0891827545948748E-012
   8.2199999999999989          2.1175756500704766E-012
   8.2800000000000011          3.2146450513949753E-012
   8.3399999999999963          4.3742195121620919E-012
   8.3999999999999986          5.5889525147511536E-012
   8.4600000000000009          6.8503071233091399E-012
   8.5199999999999960          8.1485545861575685E-012
   8.5799999999999983          9.4727795410145932E-012
   8.6400000000000006          1.0810900230692274E-011